# vtk DataFile Version 2.0
Vessel Segment
ASCII
DATASET POLYDATA
POINTS 2514 float
62.62 -121.2 91.14
61.38 -121.2 92.38
60.45 -121.5 93.62
58.9 -121.5 94.86
56.42 -120.6 96.1
53.32 -120.9 98.58
51.46 -121.8 99.82
51.15 -122.1 101.1
50.84 -125.2 102.3
51.46 -129.0 102.9
63.86 -120.9 89.9
66.34 -119.3 88.66
68.2 -115.9 87.42
68.2 -112.2 86.8
67.58 -109.7 85.56
67.58 -109.1 84.32
67.27 -107.9 83.08
67.27 -107.3 81.84
67.27 -107.3 80.6
66.96 -106.6 79.36
67.27 -107.6 78.12
66.34 -107.3 76.88
66.96 -107.3 75.64
67.27 -106.0 74.4
69.13 -104.5 75.64
70.68 -103.5 76.88
70.68 -101.7 78.12
70.37 -100.8 79.36
69.44 -99.51 80.6
68.51 -98.89 81.84
68.2 -98.58 82.46
67.58 -97.96 81.84
64.17 -94.86 82.46
62.31 -93.31 81.84
60.14 -93.31 81.22
55.8 -95.17 80.6
54.56 -94.24 81.22
54.87 -93.0 81.84
53.94 -91.14 81.22
52.7 -92.38 79.98
53.01 -93.0 78.74
52.39 -93.62 77.5
52.39 -96.1 76.26
50.53 -97.96 73.78
50.53 -99.2 73.16
54.56 -101.7 71.92
54.87 -95.48 79.98
56.42 -96.72 79.36
57.66 -98.58 78.74
59.21 -101.1 77.5
60.14 -103.5 76.26
60.45 -104.8 75.02
60.14 -105.7 73.78
57.66 -104.2 73.16
55.18 -102.3 73.78
52.39 -100.4 75.02
50.22 -98.89 77.5
55.8 -98.27 78.12
53.94 -97.96 77.5
52.08 -96.41 76.26
50.22 -97.65 75.02
48.98 -97.96 74.4
47.12 -97.65 73.78
44.02 -95.48 75.02
41.85 -93.62 76.26
39.99 -91.14 75.64
40.92 -89.9 74.4
44.02 -89.59 73.16
47.43 -86.8 71.92
48.98 -85.56 70.68
48.67 -84.32 68.82
48.05 -82.15 68.2
43.4 -82.15 70.06
40.61 -83.7 71.3
40.3 -83.7 72.54
39.06 -85.87 73.78
36.27 -87.42 75.02
33.79 -89.9 74.4
32.55 -91.14 73.16
31.93 -92.38 71.92
32.24 -92.07 70.68
30.38 -91.76 69.44
30.69 -89.28 66.96
27.28 -88.04 68.2
26.04 -86.8 69.44
25.73 -86.18 70.68
23.56 -84.32 71.92
22.63 -83.7 73.16
21.7 -82.46 74.4
21.08 -80.6 75.64
21.39 -78.74 76.88
20.46 -76.88 78.12
20.15 -75.02 79.36
20.46 -71.92 80.6
21.7 -66.96 78.74
23.56 -61.07 79.36
27.59 -61.38 80.6
28.83 -58.9 81.22
29.45 -55.18 80.6
31.0 -51.77 81.84
33.48 -51.15 83.08
35.34 -51.15 83.7
36.58 -50.53 81.84
38.44 -49.29 80.6
41.54 -50.53 79.98
43.4 -50.84 81.22
50.22 -98.58 78.74
48.36 -97.96 79.98
46.5 -97.03 81.22
45.26 -97.03 82.46
44.64 -96.41 83.7
43.4 -96.41 84.94
40.92 -96.72 85.56
38.13 -96.1 84.94
35.65 -93.0 83.7
35.65 -89.28 83.08
35.34 -86.8 81.84
35.96 -84.94 80.6
35.03 -84.32 79.36
35.03 -83.08 78.12
34.1 -81.84 76.88
47.74 -98.27 76.26
45.26 -98.27 75.64
42.16 -97.96 76.88
37.82 -93.0 76.26
35.96 -92.38 74.4
35.65 -93.62 73.16
35.03 -94.24 71.92
34.72 -94.86 70.68
34.1 -94.24 69.44
33.48 -95.17 68.2
32.24 -95.17 67.58
30.07 -96.1 68.2
29.14 -98.58 69.44
31.31 -104.2 68.82
31.93 -79.36 78.12
31.62 -79.05 79.36
30.38 -78.12 80.6
29.14 -77.81 81.84
27.28 -78.43 83.08
26.04 -78.12 84.32
25.42 -78.43 85.56
24.18 -78.74 87.42
23.25 -78.74 88.66
22.01 -81.84 89.9
22.32 -81.84 91.14
22.63 -81.22 92.38
23.87 -79.98 93.62
53.94 -95.17 79.36
52.7 -95.17 78.12
50.22 -95.48 77.5
47.74 -95.79 76.88
45.57 -96.41 77.5
45.57 -98.58 78.12
44.64 -99.2 79.36
44.64 -99.2 80.6
43.4 -99.2 81.84
41.85 -96.1 83.08
40.92 -95.48 84.32
41.23 -94.24 85.56
40.92 -93.62 86.8
40.92 -93.0 88.04
40.92 -92.38 89.28
41.23 -91.14 90.52
40.92 -91.14 91.76
41.23 -89.28 93.0
40.92 -90.52 94.24
41.23 -89.9 95.48
40.92 -88.66 96.72
40.92 -88.04 97.96
40.61 -86.8 99.2
40.3 -85.56 100.4
39.99 -83.08 99.82
40.3 -80.6 98.58
39.99 -79.36 97.34
39.68 -76.26 96.1
39.37 -75.33 97.34
39.68 -74.4 98.58
39.68 -71.92 99.82
39.68 -71.92 100.4
39.99 -70.06 99.82
39.99 -69.44 98.58
42.78 -67.58 99.2
44.02 -65.72 100.4
45.26 -65.72 101.7
45.26 -66.03 102.9
46.19 -66.96 104.2
46.5 -68.2 105.4
45.26 -68.82 106.6
44.02 -69.13 107.3
38.75 -70.99 106.6
34.72 -71.92 107.3
31.62 -71.61 107.9
24.49 -68.82 106.6
22.94 -65.72 107.3
22.94 -65.1 108.5
23.25 -63.86 109.7
23.56 -62.62 111.0
23.87 -60.76 112.2
26.04 -59.83 113.5
30.07 -57.66 112.8
31.0 -57.66 111.6
31.0 -56.42 111.0
31.31 -55.8 109.7
31.0 -53.94 108.5
27.9 -51.46 106.0
27.28 -48.98 105.4
29.76 -46.19 106.0
31.0 -44.95 107.3
31.93 -44.64 108.5
32.24 -42.78 109.7
32.24 -42.78 111.0
30.69 -40.92 112.2
29.76 -40.3 113.5
29.14 -38.44 114.7
29.45 -35.96 115.3
31.62 -30.07 116.6
33.17 -31.0 117.8
34.72 -32.24 119.7
40.3 -71.92 101.7
40.92 -72.23 102.9
41.54 -72.54 104.2
43.09 -72.54 105.4
45.57 -71.92 106.6
47.74 -70.68 107.9
48.36 -68.82 109.1
48.05 -66.96 110.4
46.5 -66.34 111.6
44.33 -66.65 112.8
41.54 -68.82 114.1
37.82 -70.06 115.3
32.86 -67.27 116.6
31.0 -66.96 117.8
29.14 -66.34 119.0
27.9 -66.34 120.3
27.28 -65.72 121.5
25.42 -65.41 120.9
23.56 -66.34 120.3
21.08 -65.1 119.7
20.77 -62.0 117.8
21.39 -61.38 116.6
21.08 -61.38 115.3
21.08 -60.76 114.1
22.01 -60.14 112.8
26.97 -65.72 122.1
27.59 -65.1 123.4
28.83 -63.24 124.0
30.69 -60.14 124.6
31.31 -56.42 124.0
30.69 -55.18 124.6
33.17 -56.73 125.2
35.34 -57.35 125.9
35.96 -57.66 125.2
35.96 -52.7 124.6
32.24 -50.84 125.2
26.04 -49.29 124.6
23.87 -48.36 124.0
23.56 -46.5 125.2
24.18 -45.57 126.5
24.18 -45.88 127.7
25.11 -46.5 129.0
25.11 -46.5 130.2
26.35 -47.74 131.4
26.97 -48.98 132.7
29.45 -52.7 124.0
27.28 -48.98 123.4
26.35 -45.26 124.0
26.04 -42.16 124.6
26.97 -39.06 124.0
28.21 -36.58 122.8
29.76 -35.34 122.1
31.62 -34.72 121.5
35.03 -35.96 122.8
35.96 -37.82 124.0
38.75 -40.3 125.9
39.68 -43.4 125.2
41.85 -46.5 126.5
42.78 -48.36 127.7
45.88 -48.67 129.0
49.6 -47.12 128.3
49.6 -45.26 129.0
48.36 -43.71 129.6
46.5 -43.09 130.8
44.95 -42.78 132.1
42.47 -40.3 131.4
42.47 -39.68 130.2
41.85 -37.82 128.3
41.23 -37.82 127.1
41.54 -36.89 125.9
51.15 -44.02 129.6
52.08 -42.78 130.8
51.77 -40.92 132.1
50.53 -39.68 133.3
49.6 -39.06 134.5
48.05 -36.58 135.2
44.02 -33.17 136.4
39.68 -31.93 135.8
38.13 -29.14 135.2
39.68 -40.3 127.1
40.61 -39.68 128.3
40.92 -37.82 129.6
41.23 -37.2 130.8
41.85 -36.58 132.1
42.78 -36.58 133.3
44.02 -35.65 134.5
45.26 -35.65 135.8
47.12 -35.34 137.0
48.67 -35.96 138.3
48.36 -37.82 139.5
47.74 -39.68 140.7
48.67 -45.26 140.1
49.91 -47.12 139.5
52.7 -48.36 140.7
53.32 -47.43 142.0
54.25 -45.88 143.2
53.63 -44.64 144.5
53.32 -42.78 145.7
53.32 -40.3 146.9
53.63 -38.44 148.2
52.39 -34.72 149.4
52.39 -31.62 150.7
44.02 -95.48 78.12
42.16 -94.24 78.74
39.99 -91.76 79.36
40.3 -92.69 79.98
40.3 -92.38 81.22
39.06 -92.38 82.46
39.68 -92.38 83.7
39.68 -91.76 84.94
39.99 -91.14 86.18
40.3 -90.52 87.42
39.99 -89.28 88.66
39.68 -87.42 89.9
39.68 -86.18 91.14
39.68 -84.32 92.38
40.3 -82.46 93.0
40.3 -80.6 94.24
39.06 -77.19 95.48
35.34 -76.26 96.1
31.62 -78.43 96.72
26.66 -76.88 97.96
23.56 -76.26 99.2
20.46 -76.88 99.82
18.91 -79.36 101.1
18.29 -79.98 102.3
18.29 -81.84 103.5
18.91 -82.46 104.8
18.6 -83.08 106.0
18.91 -83.08 108.5
20.15 -83.7 109.7
22.32 -82.46 111.0
24.18 -82.15 112.2
24.18 -82.46 113.5
35.65 -74.4 96.72
34.41 -73.78 97.96
34.1 -72.85 99.2
32.86 -72.54 100.4
32.86 -72.85 101.7
31.93 -73.47 102.9
32.24 -73.47 104.2
32.24 -73.16 105.4
32.24 -73.47 106.6
32.24 -73.78 107.9
32.24 -73.16 109.1
32.24 -73.78 110.4
32.24 -73.16 111.6
30.38 -71.3 112.8
24.49 -68.2 114.1
22.32 -66.96 115.3
21.08 -66.96 116.6
20.77 -67.58 117.8
20.46 -67.58 119.0
20.15 -68.82 120.3
20.46 -70.06 121.5
20.46 -70.06 122.8
20.46 -70.68 124.0
21.08 -71.92 125.2
20.46 -71.92 126.5
21.08 -72.54 127.7
21.08 -72.23 129.0
21.7 -71.61 130.2
22.32 -71.92 131.4
22.94 -72.54 132.7
23.87 -71.92 133.9
24.18 -71.3 135.2
24.18 -70.68 136.4
24.18 -70.68 137.6
27.28 -71.3 137.0
29.14 -72.54 135.8
30.38 -72.85 134.5
30.69 -74.4 133.3
31.31 -74.4 132.1
31.31 -73.78 130.8
31.93 -73.78 129.6
32.24 -73.78 128.3
34.1 -74.09 127.1
34.72 -75.64 125.9
37.2 -76.26 125.2
40.3 -77.19 124.6
40.92 -76.88 123.4
39.06 -76.26 122.1
35.34 -76.57 120.9
32.86 -76.88 119.7
29.14 -76.88 118.4
25.73 -78.12 117.2
24.49 -79.98 115.9
24.18 -81.84 114.7
24.18 -84.32 113.5
20.46 -84.63 111.0
19.22 -85.25 109.7
18.6 -85.56 108.5
17.98 -84.94 107.3
18.29 -84.94 106.0
18.29 -84.32 103.5
18.29 -82.46 102.3
17.67 -81.22 101.1
24.18 -70.68 138.3
25.42 -68.2 139.5
26.66 -66.96 140.1
27.9 -63.86 139.5
29.14 -62.0 138.9
28.83 -67.58 139.5
30.38 -67.58 138.3
32.55 -68.2 137.0
32.24 -67.27 135.8
32.24 -67.58 134.5
31.0 -60.14 139.5
31.62 -59.52 140.7
32.86 -59.21 142.0
33.48 -58.59 143.2
34.72 -58.59 144.5
34.72 -59.21 145.7
37.2 -59.52 146.9
39.06 -61.07 148.2
42.16 -63.24 147.6
41.85 -64.48 148.2
40.3 -65.1 147.6
39.06 -65.41 146.3
43.4 -63.86 146.9
44.02 -64.17 145.7
45.26 -63.55 144.5
46.5 -62.62 143.8
46.5 -62.62 143.2
48.36 -63.55 142.6
48.36 -65.1 141.4
48.05 -65.72 140.1
48.05 -66.96 139.5
47.12 -66.96 138.9
44.02 -66.65 140.1
42.78 -66.96 141.4
41.54 -66.03 142.6
39.06 -66.34 143.8
37.82 -66.03 144.5
34.72 -65.41 145.7
32.86 -65.41 146.9
31.31 -66.03 148.2
29.45 -68.2 148.8
30.07 -70.68 150.0
30.07 -71.3 151.3
31.62 -70.99 152.5
39.37 -65.1 143.2
39.06 -65.1 142.0
39.37 -66.34 140.7
41.54 -68.51 139.5
44.33 -69.75 138.3
46.19 -70.68 137.0
46.81 -72.54 135.8
48.36 -60.76 144.5
47.43 -58.9 145.7
47.12 -57.66 146.9
46.5 -56.42 148.2
45.88 -55.8 149.4
44.64 -54.56 150.7
44.02 -54.56 151.3
42.16 -57.04 150.7
39.06 -57.35 151.3
34.72 -56.73 151.9
34.41 -56.42 153.1
34.41 -56.42 154.4
35.65 -57.04 155.6
36.89 -58.28 156.9
37.51 -58.9 158.1
38.44 -60.14 159.3
38.44 -63.24 160.6
43.4 -53.94 151.9
41.85 -50.84 152.5
40.3 -47.74 155.0
41.23 -47.74 157.5
42.78 -48.36 158.7
41.54 -50.22 159.3
41.85 -51.46 160.6
42.47 -57.66 163.7
43.4 -59.52 164.9
44.02 -60.45 166.2
45.57 -59.52 167.4
49.29 -57.66 168.6
51.77 -57.04 169.9
54.56 -56.11 171.7
57.04 -54.87 173.0
60.14 -53.63 174.2
62.62 -54.87 175.5
42.78 -48.36 159.3
44.33 -48.98 160.6
45.26 -50.22 161.8
46.5 -51.46 163.1
48.98 -51.15 164.3
50.22 -51.77 165.5
52.08 -50.53 166.8
52.7 -51.46 168.0
53.94 -53.01 169.3
55.8 -53.32 170.5
39.06 -89.28 78.74
35.96 -80.6 78.12
35.34 -79.36 76.88
36.58 -79.36 75.64
38.13 -79.98 74.4
41.23 -78.74 73.16
44.33 -75.02 72.54
44.64 -72.54 71.3
44.64 -70.99 70.06
43.4 -70.68 68.82
40.92 -70.99 69.44
38.75 -73.16 70.06
35.96 -76.88 68.82
31.62 -77.81 70.06
29.76 -77.81 71.3
29.14 -78.43 72.54
28.52 -78.43 73.78
28.52 -77.81 75.02
26.66 -76.26 75.64
24.49 -75.64 75.02
[...]
POINT_DATA 2514
SCALARS MaximumInscribedSphereRadius float
LOOKUP_TABLE default
2.257
1.55
1.885
1.86
2.17
1.389
1.55
1.55
1.86
1.24
1.24
1.55
1.24
1.24
1.86
1.86
2.17
1.55
2.17
1.86
1.581
1.86
1.24
1.55
1.314
1.24
1.24
0.9796
1.277
0.9796
1.24
1.389
0.93
0.9796
0.93
1.116
0.62
0.31
0.62
0.62
0.31
0.31
0.31
0.31
0.31
0.62
1.277
0.62
0.62
0.31
0.62
0.31
0.31
0.62
0.62
0.31
0.93
0.31
0.62
0.31
0.31
0.62
0.31
0.62
0.31
0.31
0.62
0.31
0.93
0.62
0.31
0.4402
0.31
0.6944
0.62
0.31
0.31
0.31
0.31
0.31
0.31
0.62
0.31
0.62
0.62
0.31
0.62
0.31
0.62
0.62
0.31
0.62
0.31
0.62
0.62
0.31
0.6944
0.31
0.31
0.31
0.31
0.31
0.31
0.31
0.31
0.62
0.62
0.62
0.31
0.31
0.31
0.31
0.62
0.31
0.31
0.31
0.62
0.62
0.31
0.31
0.62
0.31
0.31
0.62
0.62
0.62
0.31
0.31
0.62
0.62
0.31
0.31
0.31
0.62
0.31
0.31
0.31
0.62
0.31
0.31
0.62
0.31
0.62
0.31
0.31
0.62
0.31
0.31
0.93
0.93
0.62
0.93
0.9796
0.31
0.62
0.62
0.62
0.93
0.62
0.93
0.62
0.62
0.62
0.31
0.62
0.31
0.62
0.31
0.62
0.62
0.93
0.62
0.93
0.62
0.93
0.62
0.9796
0.62
0.62
0.62
0.93
0.31
0.62
0.62
0.62
0.93
0.31
0.62
0.62
0.31
0.4402
0.62
0.31
0.6944
0.62
0.62
0.31
0.62
0.31
0.31
0.31
0.62
0.62
0.31
0.62
0.62
0.62
0.31
0.31
0.31
0.62
0.62
0.93
0.62
0.62
0.31
0.31
0.6944
0.62
0.62
0.93
1.24
0.6944
0.6944
0.62
0.62
0.93
0.62
0.9796
0.62
0.62
0.31
0.62
0.62
0.62
0.62
0.31
0.62
0.62
0.31
0.31
0.62
0.62
0.31
0.31
0.93
0.31
0.93
0.93
0.93
0.4402
0.31
0.62
0.62
0.62
0.31
0.31
0.62
0.31
0.62
0.31
0.31
0.31
0.31
0.31
0.62
0.31
0.62
0.93
0.31
0.62
0.62
0.31
0.62
0.31
0.62
0.31
0.62
0.31
0.62
0.62
0.31
0.31
0.31
0.31
0.31
0.31
0.31
0.31
0.31
0.62
0.31
0.31
0.62
0.31
0.31
0.31
0.31
0.62
0.31
0.62
0.31
0.31
0.62
0.31
0.31
0.62
0.31
0.62
0.62
0.31
0.93
0.62
0.31
0.31
0.93
0.62
0.62
0.31
0.31
0.31
1.24
0.8742
0.93
0.93
0.62
0.62
0.62
0.62
0.31
0.62
0.31
0.62
0.62
0.62
0.62
0.62
1.116
0.62
0.31
0.62
0.62
0.62
0.31
0.31
0.31
0.31
0.62
0.31
0.31
0.62
0.31
0.62
0.93
0.6944
0.31
0.62
0.31
0.4402
0.31
0.62
0.31
0.62
0.62
0.62
0.62
0.62
0.6944
0.62
0.62
0.31
0.62
0.93
0.62
0.62
0.62
0.62
0.62
0.62
0.31
0.31
0.62
0.62
0.31
0.62
0.62
0.62
0.62
0.62
0.31
0.31
0.31
0.31
0.31
0.62
0.31
0.62
0.62
0.31
0.62
0.62
0.31
0.62
0.62
0.31
0.31
0.62
0.62
0.31
0.31
0.62
0.62
0.31
0.6944
0.31
0.31
0.62
0.62
0.62
0.62
0.62
0.6944
0.62
0.31
0.31
0.62
0.62
0.62
0.93
0.93
0.31
0.31
0.62
0.93
0.62
0.31
0.62
0.31
0.62
0.93
0.93
0.62
0.62
0.31
0.62
0.31
0.31
0.62
0.31
0.62
0.31
0.62
0.31
0.31
0.31
0.4402
0.31
0.31
0.31
0.31
0.31
0.62
0.31
0.31
0.4402
0.31
0.31
0.62
0.93
0.62
0.62
0.62
0.62
0.62
0.62
0.31
0.31
0.31
0.31
0.31
0.31
0.31
0.62
0.62
0.62
0.31
0.62
0.31
0.62
0.62
0.31
0.31
0.62
0.31
0.31
0.31
0.31
0.31
0.31
0.31
0.31
0.62
0.6944
0.62
0.62
0.31
0.31
0.31
0.31
0.31
0.62
0.62
0.62
0.62
0.62
0.6944
0.6944
0.31
0.62
0.93
1.24
0.93
0.93
0.62
0.31
0.31
0.31
0.93
0.31
0.62
0.31
0.62
0.62
0.31
0.31
0.31
0.31
0.62
0.62
0.31
0.31
0.31
0.31
0.62
0.62
0.62
0.31
0.31
0.31
0.31
0.31
0.31
0.31
0.62
0.31
0.31
0.62
0.31
0.31
0.31
0.62
0.93
0.31
0.62
0.31
0.31
0.62
0.62
0.31
0.31
0.62
0.31
0.31
0.31
0.62
0.31
0.31
0.62
0.62
0.31
0.62
0.62
0.62
0.31
0.31
0.8742
0.6944
0.31
0.31
0.62
0.93
0.31
0.31
0.62
0.31
0.31
0.31
0.31
0.31
0.62
0.62
0.62
0.62
0.31
0.31
0.62
0.31
0.31
0.31
0.62
0.62
0.31
0.62
0.31
0.31
0.31
0.62
0.31
0.31
0.31
0.31
0.31
0.62
0.62
0.62
0.62
0.31
0.62
0.31
0.62
0.31
0.62
0.62
0.62
0.62
0.62
0.31
0.4402
0.31
0.31
0.31
0.31
0.62
0.62
0.31
0.62
0.31
0.31
0.62
0.93
0.8742
0.93
1.24
1.314
0.9796
0.93
0.93
0.93
0.93
0.93
0.62
0.31
0.31
0.62
0.62
0.62
0.62
0.93
0.62
0.62
0.62
0.62
0.93
0.62
0.31
0.31
0.31
0.31
0.31
0.62
0.62
0.62
0.31
0.31
0.62
0.31
0.62
0.62
0.62
0.31
0.62
0.62
0.31
0.31
0.31
0.31
0.31
0.62
0.62
0.93
0.62
0.62
0.62
1.24
0.31
0.31
0.62
0.62
0.31
0.31
0.31
0.31
0.62
0.31
0.62
0.31
0.31
0.62
0.31
0.31
0.31
0.31
0.31
0.62
0.31
0.31
0.31
0.62
0.31
0.31
0.31
0.31
0.62
0.62
0.62
0.62
0.62
0.31
0.31
0.31
0.62
0.31
0.31
0.31
0.31
0.62
0.31
0.62
0.62
0.31
0.31
0.62
0.93
1.24
0.93
0.62
0.93
0.93
0.62
0.93
1.116
1.24
0.62
0.31
0.93
0.62
0.62
0.93
0.62
0.62
0.62
0.62
0.93
1.24
0.62
0.62
0.31
0.93
0.62
0.62
0.31
0.31
0.62
0.62
0.62
0.62
0.31
0.62
0.62
0.62
0.62
0.31
0.93
0.93
0.31
0.31
0.31
0.31
0.62
0.31
0.62
0.31
0.31
0.31
0.62
0.62
0.31
0.31
0.62
0.31
0.62
0.31
0.31
0.31
0.62
0.62
0.31
0.62
0.31
0.62
0.62
0.31
0.31
0.31
0.62
0.31
0.31
0.62
0.62
0.31
0.31
0.31
0.31
0.31
0.31
0.31
0.31
0.62
0.62
0.31
0.93
0.93
0.62
0.62
0.62
0.62
0.31
0.31
0.62
0.62
0.62
0.62
0.62
0.62
0.62
0.93
0.62
0.31
0.31
0.62
0.31
0.93
0.62
0.31
0.31
0.62
0.62
0.62
0.31
0.31
0.31
0.31
0.62
0.31
0.31
0.31
0.31
0.62
0.31
0.31
0.31
0.31
0.31
0.31
0.31
0.62
0.62
0.62
0.62
0.31
0.31
0.62
0.31
0.31
0.31
0.31
0.62
0.31
0.31
0.31
0.31
0.6944
0.62
0.62
0.31
0.31
0.93
0.62
1.24
0.93
0.93
0.62
0.62
0.31
0.62
0.62
0.62
0.31
0.31
0.31
0.31
0.31
0.31
0.62
0.31
0.62
0.62
0.62
0.62
0.62
0.62
0.62
0.31
0.62
0.31
0.31
0.31
0.62
0.31
0.62
0.62
0.62
0.31
0.31
0.62
0.31
0.31
0.62
0.31
0.6944
0.31
0.31
0.31
0.31
0.31
0.31
0.31
0.31
0.62
0.62
0.31
0.62
0.62
0.62
0.62
0.62
0.31
0.62
0.62
0.62
0.31
0.62
0.62
0.31
0.31
0.31
0.62
0.62
0.62
0.62
0.62
0.31
0.62
0.31
0.62
0.62
0.62
0.62
0.62
0.62
0.31
0.62
0.62
0.62
1.24
0.62
0.62
0.62
0.62
0.62
0.62
0.62
0.62
0.62
0.31
0.62
0.31
0.31
0.62
0.31
0.62
0.31
0.31
0.31
0.31
0.62
0.31
0.31
0.31
0.31
0.62
0.62
0.62
0.31
0.31
0.31
0.62
0.31
0.62
0.93
0.93
0.62
1.24
0.62
0.93
0.62
0.62
0.62
0.62
0.31
0.62
0.62
0.62
0.31
0.62
0.31
0.31
0.31
0.31
0.31
0.31
0.31
0.31
0.62
0.31
0.31
0.6944
0.93
0.62
0.62
0.31
0.62
0.31
0.62
0.62
0.62
0.62
0.62
0.62
0.62
0.62
0.62
0.62
0.31
0.62
0.62
0.31
0.31
0.31
0.62
0.31
0.62
0.31
0.31
0.62
0.31
0.31
0.31
0.31
0.31
0.31
0.31
0.31
0.31
0.31
0.62
0.4402
0.31
0.31
0.31
0.31
0.31
0.31
0.31
0.31
0.31
0.31
0.31
0.62
0.31
0.31
0.31
0.31
0.62
0.31
0.31
0.31
0.31
0.31
0.93
0.62
0.31
0.6944
0.62
0.62
0.62
0.31
0.31
0.62
0.62
0.31
0.93
0.62
0.62
0.62
0.31
0.62
0.31
0.31
0.4402
0.31
0.31
0.31
0.31
0.31
0.31
0.62
0.31
0.31
0.62
0.31
0.31
0.62
0.62
0.31
0.31
0.62
0.31
0.31
0.31
0.62
0.62
0.62
0.62
0.31
0.62
0.62
0.31
0.31
0.62
0.62
0.4402
0.31
0.62
0.31
0.31
0.6944
0.31
0.62
0.62
0.62
0.31
0.31
0.31
0.31
0.31
0.31
0.31
0.31
0.31
0.31
0.31
0.31
0.62
0.31
0.31
0.31
0.31
0.62
0.31
0.31
0.31
0.31
0.31
0.31
0.31
0.31
0.62
0.31
0.62
0.31
0.62
0.62
0.31
0.31
0.62
0.62
0.31
0.31
0.62
0.31
0.31
0.62
0.62
0.31
0.62
0.31
0.31
0.31
0.31
0.62
0.62
0.31
0.31
0.31
0.62
0.31
0.31
0.62
0.31
0.31
0.62
0.62
0.31
0.4402
0.62
0.31
0.31
0.31
0.31
0.62
0.62
0.31
0.62
0.62
0.62
0.31
0.31
0.31
0.62
0.62
0.6944
0.6944
0.93
0.62
0.93
0.8742
0.62
0.62
0.62
0.62
0.93
0.93
0.62
0.93
0.93
0.62
0.62
0.31
0.62
0.31
0.6944
0.31
0.62
0.62
0.62
0.31
0.31
0.31
0.62
0.31
0.31
0.31
0.31
0.62
0.62
0.62
0.62
0.31
0.62
0.62
0.31
0.62
0.31
0.31
0.62
0.62
0.31
0.31
0.31
0.31
0.62
0.31
0.31
0.31
0.31
0.31
0.31
0.31
0.31
0.31
0.31
0.31
0.31
0.62
0.62
0.31
0.31
0.31
0.31
0.31
0.31
0.62
0.31
0.31
0.31
0.31
0.31
0.31
0.31
0.31
0.31
0.93
0.62
0.62
0.31
0.31
0.62
0.62
0.62
0.62
0.62
0.62
0.62
0.62
0.62
0.62
0.62
0.93
0.31
0.62
0.31
0.62
0.62
0.62
0.31
0.62
0.62
0.31
0.62
0.31
0.62
0.62
0.62
0.62
0.62
0.62
0.93
0.62
0.62
0.31
0.31
0.62
0.31
0.62
0.62
0.62
0.93
0.31
0.62
0.62
0.31
0.31
0.62
0.62
0.62
0.31
0.93
0.31
0.31
0.31
0.62
0.62
0.62
0.31
0.31
0.62
0.62
0.31
0.31
0.31
0.62
0.31
0.6944
0.31
0.31
0.62
0.31
0.31
0.6944
0.62
0.62
0.31
0.31
0.62
0.31
0.31
0.31
0.31
0.93
0.31
0.62
0.31
0.31
0.93
0.62
0.62
0.31
0.6944
0.93
0.31
0.31
0.62
0.31
0.31
0.31
0.31
0.31
0.62
0.31
0.31
0.62
0.31
0.31
0.62
0.31
0.62
0.93
0.62
0.93
0.62
0.93
0.31
0.31
0.31
0.31
0.62
0.62
0.62
0.62
0.62
0.31
0.31
0.31
0.31
0.62
0.31
0.62
0.62
0.62
0.31
0.62
0.62
0.62
0.62
0.62
0.62
0.62
0.62
0.62
1.55
1.668
0.93
1.277
0.9796
0.93
0.93
0.93
0.62
0.62
0.31
0.31
0.31
0.31
0.31
0.31
0.31
0.31
0.31
0.31
0.31
0.31
0.31
0.31
0.31
0.31
0.31
0.31
0.31
0.31
0.31
0.31
0.31
0.31
0.93
0.93
0.93
0.93
0.93
0.93
0.93
0.62
0.31
0.62
0.31
0.31
0.62
0.62
0.62
0.62
0.9796
0.31
0.62
0.62
0.31
0.93
0.62
0.93
0.62
0.31
0.31
0.62
0.62
0.62
0.62
0.62
0.62
0.62
0.62
0.31
0.31
0.62
0.31
0.62
0.62
0.31
0.31
0.31
0.31
0.31
0.31
0.62
0.6944
0.31
0.62
0.31
0.62
0.93
0.62
0.62
0.62
0.62
0.62
0.62
0.62
0.62
0.31
0.31
0.31
0.31
0.31
0.31
0.93
0.6944
0.62
0.62
0.62
0.31
0.62
0.62
0.31
0.31
0.31
0.62
0.62
0.31
0.31
0.62
0.31
0.31
0.31
0.31
0.31
0.31
0.31
0.62
0.31
0.31
0.31
0.31
0.31
0.31
0.62
0.31
0.62
0.62
0.93
0.62
0.62
0.93
0.62
0.93
0.31
0.62
0.93
1.24
0.62
0.62
0.62
0.62
0.62
0.62
0.62
0.62
0.62
0.62
0.62
0.62
0.31
0.62
0.62
0.62
0.62
0.93
0.31
0.62
0.62
0.31
0.62
0.31
0.62
0.31
0.93
0.31
0.31
0.62
0.31
0.62
0.62
0.31
0.31
0.62
0.31
0.62
0.31
0.62
0.31
0.93
0.62
0.31
0.62
0.62
0.62
0.62
0.62
0.62
0.62
0.62
0.31
0.31
0.62
0.62
0.31
0.62
0.62
0.31
0.31
0.31
0.62
0.62
0.31
0.31
0.31
0.31
0.6944
0.31
0.31
0.31
0.31
0.31
0.31
0.31
0.31
0.93
0.31
0.62
0.31
0.31
0.31
0.62
0.62
0.31
0.31
0.62
0.31
0.62
0.62
0.62
0.62
0.31
0.62
0.31
0.62
0.31
0.31
0.31
0.31
0.31
0.31
0.31
0.62
0.31
0.31
0.62
0.31
0.31
0.31
0.62
0.31
0.62
0.62
0.62
0.62
0.62
0.62
0.31
0.31
0.62
0.31
0.31
0.31
0.62
0.93
0.62
0.62
0.31
0.62
0.31
0.62
0.62
0.31
0.31
0.31
0.62
0.62
0.62
0.62
0.93
0.93
0.62
0.31
0.31
0.31
0.31
0.62
0.31
0.31
0.31
0.31
0.31
0.31
0.31
0.31
0.31
0.62
0.31
0.62
0.93
0.62
0.62
0.62
0.62
0.62
0.62
0.62
0.62
0.31
0.62
0.31
0.62
0.62
0.31
0.31
0.31
0.31
0.31
0.31
0.31
0.31
0.62
0.31
0.31
0.31
0.31
0.62
0.62
0.62
0.62
0.93
0.62
0.31
0.62
0.31
0.31
0.62
0.31
0.31
0.31
0.62
0.31
0.62
0.62
0.31
0.31
0.31
0.62
0.31
0.31
0.31
0.31
0.62
0.31
0.31
0.31
0.62
0.31
0.93
0.93
0.62
0.93
0.93
0.31
0.62
0.62
0.62
0.62
0.31
0.62
0.62
0.62
0.31
0.31
0.31
0.62
0.62
0.62
0.31
0.62
0.31
0.31
0.62
0.62
0.62
0.93
0.62
0.62
0.31
0.4402
0.62
0.31
0.31
0.62
0.62
0.31
0.62
0.31
0.31
0.62
0.62
0.31
0.62
0.31
0.31
0.31
0.31
0.31
0.4402
0.62
0.93
0.62
0.62
0.62
0.93
0.62
0.93
0.62
0.62
0.93
1.277
0.93
0.93
0.93
0.62
0.62
0.62
0.31
0.62
0.31
0.62
0.31
0.62
0.31
0.62
0.31
0.62
0.62
0.31
0.31
0.62
0.62
0.62
0.31
0.62
0.62
0.62
0.62
0.31
0.31
0.31
0.31
0.31
0.31
0.62
0.31
0.31
0.31
0.62
0.62
0.62
0.62
0.31
0.31
0.31
0.31
0.31
0.31
0.62
0.31
0.62
0.31
0.31
0.62
0.31
0.31
0.31
0.62
0.6944
0.62
0.31
0.62
0.93
0.62
0.93
0.62
0.31
0.62
0.93
0.62
0.62
0.62
0.62
0.62
0.31
0.93
0.31
0.62
0.62
0.62
0.62
0.62
0.93
0.31
0.6944
0.62
0.31
0.62
0.93
0.62
0.62
0.93
0.62
0.62
0.62
0.62
0.62
0.4402
0.62
0.62
0.31
0.62
0.31
0.62
0.62
0.31
0.93
0.62
0.31
0.62
0.62
0.31
0.93
0.93
0.93
0.62
0.62
1.116
0.62
0.62
0.62
0.6944
0.62
0.62
0.31
0.62
0.62
0.93
0.93
0.31
0.31
0.62
0.62
0.62
0.31
0.31
0.31
0.31
0.62
0.93
0.62
0.93
0.31
0.62
0.62
0.31
0.93
0.31
0.31
0.31
0.31
0.31
0.31
0.31
0.62
0.31
0.31
0.31
0.31
0.31
0.31
0.31
0.31
0.31
0.31
0.31
0.31
0.31
0.31
0.31
0.62
0.62
0.62
0.31
0.31
0.31
0.31
0.31
0.31
0.31
0.62
0.31
0.31
0.31
0.31
0.31
0.31
0.31
0.62
0.62
0.31
0.62
0.62
0.31
0.31
0.31
0.31
0.31
0.4402
0.31
0.31
0.62
0.31
0.31
0.62
0.31
0.62
0.31
0.62
0.93
0.93
0.62
0.62
0.9796
0.62
0.62
0.93
0.93
0.93
0.62
0.62
0.31
0.31
0.31
0.31
0.62
0.62
0.62
0.31
0.31
0.62
0.31
0.31
0.31
0.31
0.31
0.62
0.62
0.31
0.31
0.62
0.62
0.62
0.31
0.62
0.31
0.31
0.31
0.31
0.31
0.31
0.62
0.31
0.31
0.31
0.31
0.31
0.31
0.31
0.62
0.31
0.31
0.31
0.31
0.31
0.31
0.31
0.31
0.31
1.24
0.62
0.93
0.93
0.62
0.31
0.31
0.31
0.31
0.62
0.31
0.31
0.31
0.31
0.62
0.31
0.31
0.31
0.31
0.31
0.31
0.31
0.31
0.6944
0.31
0.31
0.31
0.31
0.31
0.31
0.31
0.31
0.31
0.62
0.31
0.31
0.31
0.31
0.62
0.62
0.62
0.62
0.62
0.31
0.31
0.62
0.31
0.31
0.31
0.31
0.31
0.62
1.24
0.93
0.62
0.62
0.31
0.62
0.31
0.62
0.31
0.62
0.62
0.62
0.62
0.62
0.62
0.31
0.31
0.62
0.31
0.8742
0.62
0.31
0.31
0.93
0.31
0.62
0.62
0.31
0.31
0.31
0.31
0.93
0.31
0.31
0.31
0.31
0.31
0.31
0.31
0.62
0.62
0.31
1.24
1.24
0.93
0.62
0.62
0.93
0.62
0.62
0.62
0.31
0.31
0.31
0.62
0.31
0.62
0.62
0.31
0.31
0.62
0.4402
0.31
0.31
0.31
0.31
0.62
0.31
0.31
0.31
0.62
0.62
0.62
0.62
0.93
0.62
0.62
0.31
0.93
0.93
0.62
0.93
0.62
0.62
0.31
0.62
0.31
0.31
0.62
0.62
0.31
0.62
0.31
0.31
0.31
0.62
0.93
0.31
0.31
0.62
0.62
0.31
0.31
0.62
0.31
0.62
0.31
0.31
0.31
0.31
0.31
0.31
0.31
0.31
0.31
0.31
0.31
0.62
0.31
0.31
0.31
0.62
0.31
0.31
0.31
0.31
0.31
0.62
0.93
0.62
0.62
0.62
0.62
0.62
0.31
0.62
0.62
0.62
0.62
0.6944
0.31
0.31
0.62
0.62
0.31
0.62
0.62
0.8742
0.31
0.31
0.31
0.31
0.31
0.31
0.31
0.31
0.31
0.31
0.31
0.31
0.31
1.24
1.24
0.93
1.55
1.755
1.24
1.55
1.55
1.55
1.86
1.55
1.86
1.86
1.86
1.55
1.55
1.24
1.389
1.55
1.55
1.55
1.55
1.959
1.55
1.277
1.55
1.86
1.86
1.55
1.86
1.55
0.93
0.62
0.62
0.31
0.62
0.62
0.31
0.31
0.62
0.62
0.31
0.62
0.62
0.62
0.31
0.31
0.31
0.31
0.62
0.31
0.62
0.31
0.62
0.31
0.62
0.31
0.31
0.31
0.31
0.62
0.31
0.31
0.31
0.31
0.93
1.24
0.31
0.31
0.62
0.31
0.62
0.31
0.31
0.31
0.62
0.31
0.62
0.62
0.62
0.62
0.31
0.31
0.31
0.31
0.31
0.31
0.31
0.31
0.31
0.31
0.62
0.31
0.31
0.62
0.31
0.62
0.31
0.31
0.31
0.6944
0.93
0.31
0.31
0.31
0.62
0.31
0.31
0.31
0.62
0.93
0.93
0.93
0.62
CELL_DATA 82
SCALARS SegmentIndex int
LOOKUP_TABLE default
0
1
2
3
4
5
6
7
8
9
10
11
12
13
14
15
16
17
18
19
20
21
22
23
24
25
26
27
28
29
30
31
32
33
34
35
36
37
38
39
40
41
42
43
44
45
46
47
48
49
50
51
52
53
54
55
56
57
58
59
60
61
62
63
64
65
66
67
68
69
70
71
72
73
74
75
76
77
78
79
80
81
SCALARS Domain int
LOOKUP_TABLE default
0
0
4
4
4
4
4
4
4
4
4
4
4
4
4
4
4
4
4
4
4
4
4
5
5
5
5
5
5
5
5
5
0
7
7
7
7
7
7
0
6
6
6
6
6
6
0
3
3
3
3
3
3
3
3
3
3
3
3
3
3
3
3
3
3
3
2
2
2
2
2
2
2
2
2
2
0
0
0
0
0
0
