# vtk DataFile Version 2.0
Vessel Segment
ASCII
DATASET POLYDATA
POINTS 2182 float
69.44 -114.4 97.34
68.51 -114.4 98.58
66.34 -113.2 99.82
63.86 -113.2 101.1
62.0 -113.2 102.3
59.52 -113.5 103.5
58.59 -114.7 104.8
71.3 -115.0 96.1
72.54 -114.7 94.86
75.02 -115.3 93.62
75.33 -115.3 92.38
76.26 -114.7 91.14
77.81 -110.4 88.66
78.43 -109.1 89.9
78.12 -106.6 91.14
78.74 -106.0 92.38
78.74 -105.1 93.62
79.67 -102.9 94.86
81.22 -102.0 93.62
82.77 -101.1 92.38
83.39 -100.4 91.14
84.63 -100.4 89.9
83.39 -101.1 88.66
84.01 -102.0 87.42
82.15 -103.2 86.18
81.22 -104.2 84.94
77.81 -106.0 83.7
78.12 -105.4 82.46
78.12 -105.4 81.22
76.88 -105.4 79.98
77.81 -103.5 78.74
78.12 -103.5 79.98
80.6 -101.7 81.22
81.53 -101.1 82.46
81.84 -99.82 83.7
82.15 -97.96 84.94
81.22 -95.48 86.18
80.6 -93.62 87.42
79.98 -91.76 88.66
79.98 -91.76 88.04
78.43 -90.52 88.66
77.19 -89.28 89.28
78.74 -87.42 88.66
79.98 -86.8 88.04
81.84 -87.42 87.42
84.32 -88.04 86.8
88.66 -88.66 84.94
90.21 -88.66 83.7
90.52 -86.18 82.46
88.97 -84.32 81.22
87.42 -83.7 78.74
86.49 -83.7 77.5
86.18 -82.46 76.26
86.49 -81.22 75.02
86.18 -81.22 73.78
86.8 -81.22 72.54
88.35 -79.98 71.3
88.66 -78.74 70.06
90.21 -78.12 68.82
90.83 -78.12 67.58
92.38 -78.43 66.34
91.76 -78.74 65.72
91.76 -78.12 64.48
92.69 -77.5 63.24
92.07 -75.64 62.0
92.07 -76.26 60.76
91.76 -75.64 59.52
91.14 -74.4 58.28
90.83 -74.4 57.04
89.9 -72.85 55.8
89.28 -72.54 55.18
89.28 -72.54 53.94
92.38 -74.71 52.7
93.0 -73.16 50.84
92.69 -71.92 49.6
91.76 -68.82 48.36
91.45 -66.34 47.12
90.83 -63.24 45.88
86.8 -61.07 46.5
84.32 -60.76 47.74
83.08 -58.9 48.98
84.32 -56.11 50.22
87.42 -54.25 51.46
90.83 -52.08 52.08
92.07 -47.74 51.46
91.45 -46.5 50.22
91.45 -45.26 48.98
91.45 -43.4 47.74
91.45 -44.02 46.5
91.76 -41.54 45.26
90.52 -38.44 44.02
88.66 -36.58 42.78
86.8 -35.03 42.16
78.74 -35.34 42.78
76.26 -33.48 44.02
75.64 -31.62 45.26
74.4 -31.0 46.5
73.16 -29.76 47.74
71.92 -30.38 48.98
70.06 -31.62 50.22
68.51 -32.24 51.46
68.82 -33.48 52.7
69.44 -34.72 53.94
69.13 -35.34 55.18
70.68 -37.82 57.66
71.61 -38.44 58.9
73.16 -38.13 60.14
74.4 -39.06 61.38
74.09 -39.06 62.62
74.71 -40.92 63.86
73.16 -41.54 65.1
71.92 -42.78 66.34
71.3 -43.09 67.58
70.99 -43.4 68.82
71.61 -41.54 70.06
71.61 -39.06 71.3
88.66 -71.92 57.04
88.04 -70.06 58.28
87.42 -68.82 59.52
88.04 -66.96 60.76
87.42 -66.34 62.0
88.66 -65.72 63.24
89.28 -63.86 64.48
89.59 -63.24 65.72
90.52 -62.0 66.96
90.52 -61.38 67.58
91.45 -60.76 68.82
91.76 -59.52 70.06
91.76 -59.52 71.3
91.45 -58.9 72.54
91.45 -58.9 73.78
90.83 -58.9 75.02
90.52 -57.66 76.26
90.21 -57.35 77.5
90.21 -54.56 78.74
90.83 -49.6 79.98
90.83 -48.67 81.22
90.83 -48.36 82.46
90.83 -47.74 83.7
90.83 -47.74 84.94
90.52 -47.74 86.18
90.52 -48.36 87.42
90.52 -48.36 88.66
89.59 -49.6 89.9
90.21 -50.22 91.14
89.59 -50.84 92.38
90.21 -50.84 93.62
89.59 -50.22 94.86
90.21 -50.84 96.1
89.59 -48.36 97.34
90.21 -48.98 98.58
90.21 -45.88 99.82
89.59 -45.26 101.1
89.9 -43.4 102.3
89.9 -41.54 103.5
90.21 -39.68 104.8
90.21 -38.44 106.0
89.28 -37.82 106.6
85.87 -38.44 107.3
82.15 -41.54 108.5
82.77 -41.54 109.7
83.08 -39.06 111.0
84.32 -38.44 112.2
85.87 -37.51 113.5
88.66 -37.51 114.7
90.21 -34.72 119.0
91.14 -32.86 120.3
90.83 -30.38 121.5
89.9 -29.14 122.8
85.25 -28.52 124.0
85.56 -27.9 125.2
92.38 -53.32 68.2
91.45 -51.46 69.44
91.45 -49.6 70.68
91.45 -47.12 71.92
90.83 -46.5 73.16
91.14 -45.88 74.4
90.83 -45.88 75.64
90.21 -46.5 76.88
89.9 -45.88 78.12
87.42 -44.64 79.36
85.25 -43.4 79.98
83.7 -41.23 80.6
81.84 -39.06 81.22
81.53 -39.06 82.46
81.53 -38.44 83.7
81.84 -37.82 84.94
82.46 -37.51 86.18
84.01 -38.13 86.8
86.49 -37.82 87.42
88.35 -35.34 86.8
89.9 -33.48 85.56
90.83 -27.28 86.18
90.21 -25.42 87.42
90.83 -24.18 88.66
90.83 -21.7 89.9
90.83 -20.46 91.14
89.28 -19.53 92.38
87.42 -18.91 93.62
84.32 -19.22 94.86
80.91 -19.84 95.48
76.57 -17.36 94.24
75.64 -14.26 95.48
75.64 -13.64 96.72
75.64 -13.64 97.96
75.64 -12.4 99.2
75.64 -11.78 100.4
75.33 -12.4 101.7
75.02 -13.64 102.9
75.33 -15.5 104.2
76.26 -17.98 105.4
75.64 -20.15 104.8
72.54 -21.7 105.4
70.68 -20.15 104.8
65.1 -17.36 105.4
62.62 -16.43 106.6
61.38 -15.81 107.9
60.45 -13.64 109.1
60.76 -14.88 110.4
58.9 -14.88 111.6
82.46 -42.47 81.22
81.84 -41.85 82.46
81.22 -41.54 83.7
81.53 -41.54 84.94
81.53 -41.54 86.18
81.84 -40.92 87.42
82.46 -40.92 88.66
83.7 -39.99 89.9
83.7 -40.92 91.14
84.32 -40.92 92.38
84.32 -40.92 93.62
84.32 -40.61 94.86
83.39 -40.3 96.1
80.91 -39.37 97.34
79.98 -35.96 97.96
80.91 -33.48 98.58
85.56 -29.76 99.82
89.59 -26.66 100.4
90.21 -26.04 101.7
90.83 -25.42 102.9
90.52 -24.18 104.2
90.83 -23.56 105.4
90.83 -22.32 106.6
90.83 -22.94 107.3
90.83 -21.7 108.5
90.83 -19.22 109.7
90.52 -13.02 111.0
87.73 -8.68 112.2
86.8 -8.06 113.5
90.21 -19.22 107.9
90.21 -15.5 109.1
89.28 -13.64 110.4
89.28 -14.26 111.6
91.14 -47.74 69.44
91.45 -47.74 68.2
90.83 -48.36 66.96
91.14 -47.74 65.72
90.83 -47.12 64.48
90.52 -44.02 65.72
90.21 -42.16 66.96
90.21 -42.16 68.2
90.21 -42.16 69.44
90.83 -41.54 70.68
90.83 -42.16 71.92
90.83 -42.16 73.16
90.83 -41.54 74.4
90.83 -40.92 75.64
90.83 -40.3 76.88
90.83 -38.44 78.12
89.59 -33.48 77.5
89.59 -29.76 76.26
90.83 -26.66 77.5
90.83 -23.56 78.74
90.52 -19.22 78.12
89.28 -17.36 76.88
88.04 -15.81 75.64
85.56 -14.88 75.02
81.84 -13.95 75.64
80.6 -13.95 76.88
78.74 -14.88 78.12
77.81 -14.88 79.36
75.33 -16.12 80.6
72.54 -17.36 81.84
70.06 -17.05 83.08
68.51 -17.36 84.32
67.89 -17.98 85.56
68.82 -17.98 86.8
67.89 -19.22 88.04
68.51 -23.56 89.28
69.13 -26.04 88.66
71.92 -26.66 88.04
90.52 -81.22 65.1
90.21 -83.7 63.86
90.83 -84.94 62.62
90.83 -84.32 61.38
90.83 -84.32 60.14
90.83 -84.32 58.9
90.83 -83.7 57.66
90.52 -82.46 56.42
89.59 -81.22 55.18
89.28 -79.36 53.94
88.35 -79.36 52.7
86.18 -78.12 51.46
88.04 -78.74 50.84
90.52 -77.5 49.6
90.83 -77.5 48.36
91.45 -75.02 47.12
91.45 -75.02 45.88
92.07 -75.64 44.64
91.45 -76.26 43.4
90.83 -78.12 42.16
90.21 -78.12 40.92
88.97 -78.74 39.68
87.73 -78.12 38.44
86.8 -76.26 37.2
86.8 -76.88 35.96
86.49 -76.26 34.72
86.18 -74.4 33.48
86.49 -73.78 32.24
85.87 -74.4 31.0
86.49 -72.54 29.76
80.91 -75.64 50.84
79.05 -73.78 49.6
79.05 -73.16 48.36
80.29 -72.54 47.12
80.91 -71.92 45.88
81.53 -70.68 44.64
81.84 -70.06 43.4
82.15 -69.44 42.16
83.39 -68.82 40.92
84.32 -68.2 39.68
84.94 -66.34 38.44
85.56 -66.65 37.2
88.66 -66.34 35.96
90.83 -65.1 34.72
92.07 -65.1 33.48
91.76 -63.86 32.24
92.38 -63.86 31.0
92.07 -63.24 29.76
90.21 -62.0 37.82
91.45 -59.52 37.2
91.45 -58.28 36.58
91.76 -54.56 37.2
91.14 -51.46 38.44
90.83 -48.98 39.06
91.14 -45.26 38.44
90.52 -44.02 37.2
90.21 -43.4 35.96
89.59 -43.4 34.72
89.9 -44.02 33.48
88.04 -44.33 32.86
85.25 -47.12 31.62
83.08 -48.98 30.38
80.29 -48.36 29.14
66.34 -89.28 85.56
64.48 -89.59 84.32
63.24 -88.97 83.08
62.62 -89.28 81.84
62.0 -88.97 80.6
61.38 -89.28 79.36
59.83 -90.52 78.12
57.66 -91.45 76.88
55.8 -92.69 77.5
53.94 -92.69 78.12
53.94 -92.38 79.36
52.7 -92.38 80.6
51.46 -91.45 81.84
51.77 -91.14 82.46
51.15 -90.52 83.7
50.84 -89.9 84.94
51.15 -89.28 86.18
51.46 -88.04 87.42
51.77 -88.04 88.66
51.77 -86.8 89.9
52.39 -83.7 91.14
52.08 -82.46 92.38
51.77 -80.6 93.62
50.84 -78.74 94.86
50.22 -76.88 96.1
50.84 -75.02 97.34
50.53 -73.78 98.58
50.53 -72.54 99.82
50.22 -72.54 100.4
50.84 -72.54 101.7
50.84 -72.54 102.9
51.77 -72.54 104.2
52.08 -72.54 105.4
52.08 -73.16 106.6
52.7 -73.16 107.9
52.7 -73.78 109.1
53.94 -73.16 110.4
53.94 -71.92 111.6
55.18 -70.06 112.2
57.04 -67.58 112.8
57.66 -65.1 112.2
56.11 -63.86 111.6
51.46 -64.48 112.2
47.12 -66.65 113.5
43.09 -67.58 114.7
35.34 -66.96 114.1
28.52 -64.48 114.7
26.04 -64.48 115.9
25.11 -63.86 117.2
24.8 -64.48 118.4
24.18 -65.72 119.7
24.18 -66.34 120.9
24.18 -65.72 122.1
24.18 -66.34 123.4
25.11 -67.58 124.6
25.42 -66.34 125.9
25.42 -66.96 127.1
25.73 -66.96 128.3
26.04 -65.72 129.6
26.66 -64.48 130.8
27.9 -64.17 131.4
28.52 -62.62 132.1
30.38 -60.76 132.7
34.72 -60.14 133.9
35.96 -59.52 134.5
39.37 -57.66 135.8
42.78 -54.56 136.4
44.02 -53.94 137.6
44.64 -52.7 138.9
44.02 -51.46 140.1
39.99 -49.6 141.4
35.03 -44.64 142.6
34.41 -45.26 143.8
34.72 -45.26 145.1
35.34 -45.26 146.3
35.96 -44.95 147.6
37.2 -45.57 148.8
38.44 -45.26 150.0
38.75 -46.5 151.3
38.75 -47.12 152.5
39.68 -47.12 153.1
40.3 -47.43 155.0
41.54 -47.12 156.2
43.09 -47.74 157.5
44.33 -47.12 158.7
45.57 -47.12 160.0
46.19 -48.36 161.2
46.5 -50.22 162.4
48.36 -50.84 163.7
42.78 -40.61 150.7
44.64 -40.3 151.3
47.74 -40.61 151.9
48.98 -40.92 152.5
49.29 -40.92 153.8
50.84 -41.54 155.0
52.08 -42.16 156.2
48.67 -42.16 151.3
48.67 -45.26 150.7
48.67 -49.91 150.0
29.14 -59.52 133.3
28.52 -58.9 134.5
27.9 -58.28 135.8
27.59 -57.66 137.0
28.21 -58.9 138.3
28.52 -60.14 139.5
29.14 -59.52 140.7
29.45 -58.9 142.0
29.45 -58.9 143.2
30.69 -58.9 144.5
31.93 -59.52 145.7
31.31 -65.1 146.9
31.62 -66.34 148.2
31.93 -66.34 149.4
32.55 -65.72 150.7
33.48 -63.24 151.9
34.41 -62.0 153.1
35.03 -62.0 154.4
35.65 -62.0 155.6
35.96 -63.86 156.9
36.89 -65.1 158.1
37.51 -66.34 158.7
29.14 -64.79 130.8
31.62 -64.17 129.6
33.48 -63.24 129.0
35.96 -62.0 128.3
37.82 -61.07 129.0
39.06 -60.45 130.2
40.3 -60.45 131.4
40.3 -60.76 132.1
40.3 -60.76 133.3
39.68 -61.38 133.9
39.06 -60.45 134.5
54.56 -69.44 110.4
53.94 -67.58 109.1
53.32 -67.58 107.9
51.46 -67.27 106.6
46.5 -66.96 105.4
42.47 -68.82 104.2
39.68 -70.37 105.4
31.62 -69.13 106.6
27.9 -67.58 107.9
25.11 -67.58 109.1
23.87 -70.68 110.4
23.87 -73.78 111.6
24.8 -75.33 112.8
26.66 -76.57 114.1
29.14 -76.26 115.3
32.24 -76.88 116.6
34.1 -77.5 117.8
35.96 -77.81 119.0
40.61 -76.26 120.3
41.85 -74.4 121.5
41.54 -73.16 122.8
40.3 -71.61 124.0
39.06 -70.99 125.2
37.82 -71.92 126.5
35.34 -73.16 127.7
31.93 -76.88 129.0
31.62 -77.5 130.2
49.6 -70.06 101.1
49.6 -68.2 103.5
49.91 -66.34 104.8
50.22 -65.72 106.6
50.22 -65.1 107.9
50.53 -64.48 109.1
49.91 -62.62 110.4
47.12 -60.45 109.7
42.78 -61.69 110.4
40.3 -65.1 111.6
39.99 -65.1 112.8
40.3 -65.72 114.1
40.3 -65.72 115.3
39.68 -66.96 116.6
39.37 -65.72 117.8
38.75 -65.1 119.0
37.82 -63.86 120.3
36.89 -60.76 119.0
[...]
POINT_DATA 2182
SCALARS MaximumInscribedSphereRadius float
LOOKUP_TABLE default
2.257
1.581
1.55
0.93
1.55
1.24
1.55
1.55
1.24
1.24
0.93
1.24
0.93
1.55
1.86
1.86
1.277
0.93
1.116
1.55
1.55
1.55
1.55
1.581
1.581
1.24
1.885
1.24
1.24
1.24
0.93
1.24
1.24
0.93
0.62
0.93
0.62
1.24
0.8742
0.8742
0.93
0.93
0.62
0.62
0.62
0.62
0.62
0.31
0.62
0.93
0.62
0.93
0.62
0.93
0.62
0.62
0.93
1.24
0.93
0.31
1.277
0.62
0.62
0.93
0.31
0.31
0.62
0.62
0.93
0.6944
0.62
0.62
0.93
0.62
0.93
0.62
0.31
0.31
0.31
0.62
0.62
0.31
0.31
0.31
0.31
0.31
0.31
0.31
0.31
0.62
0.62
0.62
0.31
0.62
0.62
0.62
0.62
0.62
0.62
0.62
0.31
0.62
0.62
0.31
0.62
0.31
0.31
0.62
0.31
0.31
0.62
0.62
0.31
0.31
0.31
0.31
0.62
0.62
0.62
0.62
0.62
0.62
0.62
0.93
0.62
0.62
0.31
0.62
0.62
0.31
0.31
0.31
0.62
0.4402
0.31
0.31
0.4402
0.31
0.31
0.31
0.62
0.62
0.62
0.31
0.31
0.31
0.31
0.31
0.31
0.31
0.31
0.31
0.31
0.62
0.62
0.31
0.31
0.62
0.6944
0.31
0.31
0.62
0.62
0.4402
0.31
0.31
0.62
0.31
0.62
0.31
0.62
0.62
0.31
0.31
0.31
0.31
0.62
0.31
0.31
0.62
0.62
0.31
0.31
0.62
0.31
0.31
0.62
0.31
0.4402
0.6944
0.31
0.62
0.31
0.31
0.31
0.31
0.31
0.31
0.31
0.62
0.6944
0.93
0.62
0.62
0.62
0.62
0.62
0.31
0.62
0.31
0.62
0.31
0.62
0.31
0.62
0.31
0.31
0.31
0.62
0.62
0.31
0.31
0.62
0.6944
0.6944
0.62
0.62
0.31
0.62
0.62
0.62
0.31
0.31
0.4402
0.62
0.31
0.62
0.31
0.31
0.31
0.62
0.31
0.31
0.31
0.31
0.31
0.62
0.31
0.62
0.31
0.31
0.62
0.62
0.62
0.31
0.31
0.62
0.31
0.62
0.31
0.31
0.31
0.31
0.31
0.31
0.31
0.31
0.31
0.31
0.31
0.31
0.31
0.31
0.62
0.62
0.31
0.62
0.31
0.31
0.62
0.31
0.31
0.62
0.31
0.31
0.31
0.62
0.31
0.31
0.31
0.62
0.62
0.31
0.31
0.31
0.31
0.31
0.31
0.62
0.31
0.62
0.31
0.62
0.62
0.62
0.31
0.31
0.31
0.31
0.31
0.31
0.31
0.31
0.31
0.62
0.62
0.31
0.62
0.31
0.31
0.31
0.31
0.31
0.31
0.31
0.31
0.31
0.62
0.31
0.31
0.62
0.62
0.31
0.62
0.31
0.31
0.62
0.62
0.31
0.31
0.31
0.31
0.62
0.62
0.31
0.62
0.62
0.31
0.31
0.62
0.31
0.31
0.62
0.31
0.62
0.93
0.93
1.24
0.93
0.62
0.6944
0.93
0.93
0.93
0.62
1.24
0.93
1.55
0.93
0.62
0.31
0.62
0.93
0.93
0.93
1.24
0.93
0.62
0.62
0.62
0.31
0.93
0.62
0.62
0.62
0.31
0.62
0.62
0.62
0.62
0.62
0.62
0.62
0.62
0.62
0.6944
0.62
0.31
0.6944
0.62
1.24
0.62
0.93
1.24
0.62
0.62
0.62
0.62
0.93
0.62
0.62
0.93
0.62
0.62
0.93
0.62
0.62
0.62
0.62
0.6944
0.62
0.62
0.62
0.62
0.6944
0.31
0.31
0.62
0.62
0.31
0.93
0.62
0.93
0.31
0.62
0.31
0.62
0.31
0.31
0.31
0.31
0.62
0.62
0.31
0.62
0.93
0.62
0.31
0.62
0.62
0.31
0.31
0.4402
0.62
0.62
0.62
0.31
0.31
0.62
0.62
0.31
0.31
0.31
0.31
0.31
0.62
0.31
0.31
0.62
0.31
0.31
0.31
0.62
0.31
0.31
0.31
0.31
0.62
0.62
0.31
0.31
0.31
0.62
0.62
0.62
0.31
0.62
0.62
0.62
0.93
0.62
0.31
0.93
0.31
0.62
0.31
0.31
0.31
0.31
0.93
0.62
0.62
0.62
0.31
0.31
0.31
0.62
0.31
0.93
0.62
0.62
0.31
0.62
0.62
0.62
0.31
0.62
0.62
0.31
0.31
0.93
0.93
0.62
0.31
0.62
0.62
0.62
0.93
0.31
0.62
0.93
0.62
0.31
0.93
0.93
0.62
0.31
0.31
0.31
0.62
0.31
0.31
0.62
0.62
0.31
0.31
0.31
0.62
0.31
0.31
0.62
0.31
0.31
0.62
0.62
0.93
0.31
0.6944
0.31
0.31
0.31
0.31
0.31
0.62
0.31
0.62
0.31
0.93
0.62
0.31
0.62
0.62
0.31
0.31
0.62
0.31
0.31
0.31
0.31
0.62
0.6944
0.62
0.31
0.31
0.62
0.62
0.62
0.31
0.31
0.6944
0.62
0.31
0.31
0.31
0.31
0.62
0.62
0.62
0.93
0.31
0.62
0.62
0.62
0.62
0.62
0.62
0.31
0.31
0.31
0.31
0.31
0.31
0.31
0.62
0.31
0.62
0.31
0.31
0.31
0.31
0.31
0.31
0.31
0.62
0.31
0.62
0.4402
0.31
0.62
0.31
0.31
0.62
0.31
0.62
0.31
0.31
0.31
0.62
0.31
0.4402
0.4402
0.31
0.31
0.62
0.31
0.31
0.62
0.62
0.62
0.31
0.93
0.31
0.62
0.31
0.31
0.62
0.31
0.62
0.31
0.62
0.31
0.31
0.62
0.62
0.31
0.62
0.62
0.62
0.31
0.31
0.62
0.31
0.31
0.31
0.62
0.9796
0.31
0.62
0.62
0.62
0.31
0.31
0.31
0.62
0.62
0.62
0.31
0.4402
0.31
0.31
0.31
0.31
0.4402
0.62
0.62
0.31
0.31
0.31
0.4402
0.31
0.31
0.62
0.62
0.31
0.31
0.93
0.31
0.4402
0.62
0.62
0.31
0.31
0.6944
0.62
0.31
0.62
0.62
0.62
0.31
0.62
0.62
0.62
0.62
0.31
0.31
0.31
0.31
0.93
0.93
0.62
0.62
0.62
0.62
0.62
0.62
0.62
0.62
0.62
0.62
0.93
0.62
0.93
0.93
0.9796
0.6944
0.62
0.6944
0.62
0.62
0.31
0.31
0.31
0.6944
0.62
0.31
0.62
0.31
0.62
0.31
0.93
0.62
0.31
0.4402
0.62
0.62
0.31
0.31
0.62
0.62
0.31
0.62
0.93
0.31
0.31
0.62
0.31
0.31
0.31
0.62
0.31
0.62
0.31
0.4402
0.62
0.62
0.62
0.62
0.62
0.93
0.93
0.93
0.31
0.62
0.62
0.62
0.31
0.62
0.62
0.93
0.31
1.24
0.62
0.31
0.31
0.62
0.62
0.62
0.93
0.31
0.62
0.62
0.6944
0.62
0.62
0.62
0.62
0.62
0.62
0.31
0.31
0.31
0.31
0.31
0.31
0.31
0.31
0.62
0.62
0.62
0.31
0.31
0.31
0.31
0.31
0.31
0.62
0.93
0.93
0.62
0.62
0.62
0.62
0.31
0.31
0.31
0.62
0.31
0.31
0.31
0.62
0.4402
1.24
0.62
0.93
0.62
0.31
0.31
0.31
0.62
0.62
0.31
0.62
0.62
0.31
0.62
0.31
0.31
0.62
0.62
0.31
0.31
0.31
0.31
0.62
0.31
0.31
0.62
0.62
0.62
0.31
0.31
0.62
0.62
0.62
0.62
0.31
0.31
0.62
0.31
0.62
0.62
0.31
0.31
0.31
0.62
0.31
0.62
0.31
0.31
0.62
0.31
0.31
0.31
0.31
0.62
0.31
0.31
0.31
0.31
0.31
0.31
0.62
0.31
0.62
0.31
0.62
0.62
0.31
0.31
0.31
0.62
0.93
0.9796
0.93
0.9796
0.6944
0.93
0.93
0.31
0.31
0.31
0.31
0.31
0.93
0.93
0.93
0.93
0.93
0.93
1.55
1.55
1.81
0.93
1.55
1.24
1.24
1.581
1.81
1.959
1.86
1.55
1.86
1.86
1.55
1.24
1.55
1.55
1.668
0.9796
1.55
1.389
1.55
1.81
2.17
1.24
1.24
1.55
1.277
1.86
1.24
1.277
1.55
1.668
1.24
0.93
0.62
1.24
0.9796
0.4402
0.62
0.62
0.62
0.62
0.62
0.62
0.93
0.93
0.62
0.31
0.93
0.62
0.9796
0.93
1.24
0.62
0.62
0.31
0.62
0.62
0.62
0.62
0.31
1.24
0.62
0.31
0.31
0.62
0.62
0.62
0.62
0.62
0.62
0.62
0.62
0.62
0.62
0.62
0.31
0.62
0.62
0.62
0.31
0.31
0.62
0.62
0.31
0.31
0.62
0.62
0.31
0.62
0.31
0.31
0.31
0.62
0.62
0.31
0.31
0.31
0.62
0.93
0.31
0.31
0.31
0.62
0.62
0.62
0.31
0.31
0.4402
0.31
0.31
0.62
0.31
0.31
0.31
0.93
0.31
0.62
0.31
0.31
0.31
0.31
0.62
0.4402
0.62
0.62
0.93
0.31
0.62
0.31
0.31
0.31
0.31
0.31
0.31
0.31
0.31
0.31
0.62
0.31
0.62
0.31
0.31
0.62
0.62
0.31
0.31
0.31
0.31
0.31
0.31
0.31
0.31
0.93
0.31
0.31
0.62
0.4402
0.31
0.31
0.31
0.31
0.31
0.31
0.31
0.62
0.62
0.31
0.31
0.31
0.62
0.62
0.31
0.31
0.31
0.31
0.31
0.31
0.62
0.62
0.4402
0.62
0.31
0.62
0.31
0.31
0.31
0.31
0.62
0.31
0.62
0.31
0.31
0.62
0.31
0.31
0.62
0.31
0.31
0.31
0.31
0.31
0.62
0.62
0.62
0.62
0.31
0.62
0.31
0.31
0.62
0.31
0.6944
0.62
0.62
0.31
0.31
0.62
0.31
0.6944
0.62
0.31
0.62
0.31
0.62
0.31
0.31
0.31
0.31
0.31
0.31
0.62
0.62
0.31
0.31
0.31
0.62
0.31
0.31
0.31
0.31
0.31
0.31
0.62
0.31
0.31
0.31
0.31
0.31
0.93
0.62
0.62
0.62
0.31
0.31
0.31
0.31
0.31
0.62
0.62
0.62
0.62
0.31
0.62
0.93
0.31
0.31
0.62
0.62
0.31
0.62
0.62
0.62
0.62
0.31
0.62
0.31
0.62
0.62
0.31
0.62
0.31
0.62
0.93
0.62
0.62
0.31
0.62
0.62
0.31
0.62
0.62
0.31
0.62
0.62
0.31
0.31
0.93
0.31
0.31
0.31
0.93
0.31
0.62
0.62
0.31
0.62
0.62
0.31
0.31
0.31
0.62
0.31
0.62
0.62
0.62
0.31
0.62
0.31
0.31
0.62
0.31
0.62
0.31
0.31
0.31
0.62
0.62
0.31
0.31
0.62
0.31
0.62
0.62
0.62
0.31
0.31
0.31
0.62
0.31
0.31
0.31
0.62
0.6944
0.4402
0.6944
0.93
0.31
0.31
0.62
0.62
0.31
0.31
0.62
0.62
0.93
0.62
0.62
0.31
0.31
0.31
0.31
0.93
0.31
0.31
0.31
0.6944
0.4402
0.62
0.31
0.62
0.62
0.31
0.62
0.31
0.31
0.31
0.62
0.31
0.31
0.31
0.31
0.62
0.31
0.62
0.31
0.62
0.31
0.62
0.62
0.31
0.31
0.31
0.62
0.31
0.62
0.31
0.93
0.62
0.62
0.31
0.31
0.31
0.62
0.62
0.31
0.31
0.31
0.62
0.31
0.31
0.31
0.62
0.62
0.62
0.62
0.62
0.62
0.62
0.31
0.31
0.62
0.31
0.31
0.31
0.62
0.62
0.31
0.31
0.62
0.31
0.62
0.31
0.31
0.31
0.62
0.31
0.31
0.31
0.31
0.31
0.31
0.62
0.6944
1.389
0.62
0.62
1.24
0.62
0.93
0.93
0.62
0.93
0.93
0.93
1.55
0.93
0.93
0.31
0.62
1.24
0.93
0.93
0.62
1.24
0.93
0.93
0.62
0.62
0.93
0.62
0.93
0.93
0.62
0.62
0.62
0.62
0.31
0.93
0.62
0.62
0.6944
0.62
0.31
0.62
0.31
0.62
0.93
0.62
0.62
0.93
0.62
0.62
0.62
0.62
0.62
0.93
0.93
0.62
0.62
0.62
0.31
0.62
0.31
0.62
0.31
0.62
0.93
0.62
0.62
0.62
0.62
0.31
0.62
0.62
0.31
0.31
0.62
0.62
0.62
0.31
0.62
0.62
0.93
0.31
0.31
0.31
0.62
0.62
0.62
0.93
0.62
0.31
0.31
0.62
0.62
0.62
0.31
0.31
0.31
0.31
0.31
0.31
0.31
0.62
0.31
0.31
0.31
0.31
0.31
0.62
0.62
0.31
0.62
0.62
0.62
0.31
0.62
0.62
0.62
0.31
0.31
0.4402
0.31
0.62
0.62
0.62
0.62
0.31
0.31
0.62
0.31
0.62
0.31
0.31
0.31
0.31
0.31
0.31
0.31
0.31
0.62
0.6944
0.6944
0.31
0.62
0.93
0.62
0.31
0.62
0.31
0.62
0.62
0.62
0.62
0.31
0.62
0.62
0.62
0.31
0.31
0.4402
0.31
0.31
0.62
0.62
0.62
0.31
0.31
0.62
0.31
0.62
0.62
0.31
0.9796
0.31
0.62
0.62
0.62
0.62
0.62
0.31
0.31
0.62
0.62
0.31
0.62
0.62
0.62
0.62
0.31
0.62
0.31
0.31
0.62
0.62
0.93
0.31
0.62
0.62
0.62
0.93
0.62
0.62
0.31
0.31
0.62
0.62
0.93
0.62
0.62
0.31
0.31
0.62
0.62
0.31
0.31
0.62
0.31
0.62
0.31
0.62
0.31
0.62
0.31
0.31
0.62
0.31
0.31
0.93
0.62
0.62
0.62
0.31
0.93
0.9796
0.62
0.62
0.6944
0.93
0.62
0.62
0.62
0.31
0.62
0.31
0.31
0.62
0.31
0.31
0.62
0.62
0.31
0.62
0.62
0.62
0.31
0.31
0.31
0.31
0.62
0.62
0.31
0.31
0.4402
0.62
0.31
0.62
0.62
0.31
0.62
0.31
0.62
0.62
0.93
0.31
0.62
0.31
0.31
0.31
0.31
0.31
0.31
0.62
0.31
0.62
0.62
0.62
0.31
0.31
0.62
0.31
0.31
0.31
0.62
0.4402
0.62
0.62
0.6944
0.31
0.31
0.62
0.62
0.31
0.62
0.31
0.62
0.31
0.62
0.31
0.31
0.31
0.31
0.62
0.62
0.93
0.62
0.31
0.62
0.62
0.62
0.62
0.31
0.62
0.31
0.31
0.62
0.31
0.31
0.62
0.4402
0.62
0.62
0.93
0.31
0.62
0.62
0.31
0.93
0.62
0.31
0.62
0.62
0.62
0.31
0.31
0.62
0.4402
0.31
0.93
0.93
0.31
0.62
0.31
0.4402
0.62
0.93
0.93
0.62
0.31
0.62
0.62
0.62
0.62
0.31
0.62
0.4402
0.31
0.31
0.31
0.31
0.31
0.31
0.62
0.62
0.62
0.31
0.31
0.31
0.6944
0.62
0.62
0.62
0.31
0.93
0.62
0.62
0.31
0.31
0.62
0.62
0.31
0.31
0.31
0.6944
0.62
0.4402
0.62
0.31
0.31
0.31
0.62
0.31
0.31
0.62
0.62
0.62
1.24
0.62
0.31
0.62
0.31
0.62
0.62
0.31
0.31
0.31
0.31
0.4402
0.31
0.31
0.31
0.62
0.31
0.31
0.62
0.62
0.31
0.62
0.31
0.31
0.31
0.62
0.62
0.31
0.62
0.31
0.4402
0.31
0.31
0.62
0.62
0.62
0.62
0.4402
0.31
0.62
0.62
0.4402
0.62
0.62
0.62
0.62
0.62
0.31
0.31
0.4402
0.31
0.31
0.31
0.31
0.31
0.62
0.62
0.62
0.31
0.62
0.31
0.31
0.31
0.31
0.62
0.31
0.62
0.62
0.62
0.62
0.31
0.31
0.62
0.62
0.31
0.93
0.31
0.62
0.31
0.31
0.31
0.31
0.31
0.62
1.277
0.62
0.6944
0.62
0.31
0.31
0.62
0.31
0.62
0.31
0.62
0.62
0.9796
0.31
0.31
0.31
0.4402
0.31
0.62
0.62
0.62
0.62
0.31
0.31
0.93
0.62
0.31
0.31
0.31
0.31
0.62
0.31
0.31
0.31
0.31
0.62
0.93
0.4402
0.31
0.31
0.62
0.4402
0.31
0.31
0.31
0.31
0.31
0.62
0.62
0.62
0.31
0.62
0.31
0.31
0.31
0.31
0.93
0.31
0.62
0.31
0.31
0.62
0.62
0.62
0.31
0.31
0.62
0.93
0.62
0.62
0.31
0.62
0.62
0.62
0.62
0.31
0.93
0.62
0.62
0.62
0.62
0.6944
0.62
0.31
0.31
0.31
0.62
0.62
0.62
0.31
0.31
0.62
0.62
0.62
0.31
0.62
0.62
0.31
0.62
0.62
0.62
0.31
0.93
0.31
0.31
0.31
0.31
0.31
0.62
0.31
0.31
0.31
0.31
0.31
0.31
0.31
0.62
0.31
0.31
0.62
0.62
0.31
0.62
0.31
0.62
0.31
0.93
0.31
0.93
0.62
0.62
0.31
0.31
0.62
0.62
0.31
0.31
0.62
0.31
0.93
0.62
0.62
0.31
0.31
0.31
0.62
0.62
0.31
0.31
0.31
0.31
0.31
0.31
0.31
0.31
0.31
0.62
0.31
0.31
0.31
0.62
0.31
0.31
0.31
0.62
0.31
0.62
0.31
0.62
0.93
0.31
0.93
0.31
0.31
0.31
0.31
0.31
0.62
0.31
0.93
0.62
0.31
0.62
0.62
0.31
0.31
0.62
0.62
0.31
0.31
0.31
0.62
0.62
0.62
0.62
0.31
0.31
0.31
0.31
0.31
0.31
0.31
0.62
0.31
0.31
0.31
0.31
0.31
0.31
0.62
0.62
0.31
0.31
0.31
0.62
0.31
0.31
0.31
0.31
0.31
0.62
1.277
0.31
0.31
0.93
0.62
0.31
0.31
0.62
0.31
0.31
0.31
0.31
0.31
0.31
0.62
0.31
0.31
0.31
0.31
0.93
0.62
0.31
0.62
0.31
0.31
0.6944
0.31
0.31
0.62
0.62
0.62
0.31
0.31
0.31
0.62
0.31
0.93
0.31
0.31
0.62
0.62
0.31
0.31
0.62
0.31
0.62
0.31
0.31
0.62
0.31
0.31
0.62
0.31
0.62
0.31
0.62
0.31
0.9796
0.31
0.31
0.62
0.62
0.62
0.31
1.116
0.31
0.31
0.31
0.31
0.31
0.62
0.31
0.31
0.31
0.31
0.31
0.31
0.31
0.31
0.31
0.62
0.93
0.31
0.31
1.24
0.93
0.93
0.93
0.93
CELL_DATA 73
SCALARS SegmentIndex int
LOOKUP_TABLE default
0
1
2
3
4
5
6
7
8
9
10
11
12
13
14
15
16
17
18
19
20
21
22
23
24
25
26
27
28
29
30
31
32
33
34
35
36
37
38
39
40
41
42
43
44
45
46
47
48
49
50
51
52
53
54
55
56
57
58
59
60
61
62
63
64
65
66
67
68
69
70
71
72
SCALARS Domain int
LOOKUP_TABLE default
0
0
5
5
5
5
5
5
5
5
4
4
4
4
4
4
4
4
4
4
4
4
4
4
4
4
0
7
7
7
7
0
0
2
2
2
2
2
2
2
2
2
2
3
3
3
3
3
3
3
3
3
3
3
3
3
3
3
3
3
3
3
6
6
6
6
6
6
0
0
0
0
0
