# vtk DataFile Version 2.0
Vessel Segment
ASCII
DATASET POLYDATA
POINTS 2179 float
62.0 -124.6 107.3
63.86 -125.9 108.5
65.72 -129.6 107.3
65.1 -135.8 106.0
61.07 -122.1 106.0
60.76 -119.0 104.8
60.76 -117.2 103.5
62.0 -117.2 102.3
62.31 -116.6 101.1
63.24 -115.6 99.82
63.86 -116.3 98.58
66.34 -117.2 97.34
68.82 -117.5 96.1
72.23 -118.1 94.86
73.78 -118.7 93.62
75.33 -118.4 92.38
77.19 -117.2 91.14
78.12 -114.7 89.9
78.43 -112.2 91.14
78.43 -108.5 92.38
78.12 -106.0 91.14
77.81 -104.2 89.9
77.19 -104.2 88.66
77.5 -103.5 87.42
76.57 -104.8 86.18
76.57 -106.0 84.94
76.88 -106.0 83.7
75.95 -106.0 82.46
75.64 -105.7 81.22
76.26 -106.3 78.74
76.88 -106.6 79.98
78.74 -105.7 81.22
80.6 -102.3 82.46
79.98 -100.4 83.7
79.36 -99.51 84.94
79.05 -97.34 86.18
76.26 -97.03 85.56
74.4 -94.24 84.94
71.61 -93.31 84.32
68.2 -94.24 83.08
65.72 -95.17 82.46
66.34 -97.34 83.08
66.03 -99.2 81.84
66.34 -98.89 80.6
66.03 -99.82 79.36
66.03 -101.1 78.12
66.34 -100.4 76.88
64.79 -101.1 76.26
63.86 -104.8 75.64
62.31 -104.2 74.4
62.0 -104.8 73.16
62.0 -104.8 71.92
61.07 -106.6 70.68
61.69 -106.0 69.44
61.38 -106.6 68.2
60.76 -106.6 66.96
57.66 -104.2 64.48
55.8 -102.9 63.24
55.18 -101.4 62.0
61.69 -101.1 76.26
59.52 -99.82 76.88
55.49 -94.86 81.84
53.01 -92.38 83.08
50.53 -90.52 84.32
49.6 -89.28 85.56
49.29 -88.04 86.8
64.48 -95.17 81.22
62.93 -96.72 79.98
59.52 -96.72 79.36
58.28 -96.72 78.74
55.8 -97.34 77.5
55.8 -96.72 76.26
55.18 -96.41 75.02
53.94 -96.1 73.78
52.39 -95.48 73.16
50.22 -92.69 74.4
48.67 -91.76 75.64
47.12 -91.14 76.88
45.26 -89.59 78.12
42.78 -88.04 79.36
42.16 -87.42 80.6
42.16 -87.42 81.84
42.16 -86.8 83.08
41.85 -86.8 84.32
41.23 -86.8 85.56
40.92 -85.56 86.8
39.99 -84.32 88.04
39.99 -79.36 86.18
40.92 -76.57 84.94
39.06 -75.02 84.32
36.89 -76.88 85.56
36.58 -76.88 86.8
36.89 -77.19 88.04
35.96 -77.5 89.28
36.27 -76.88 90.52
31.62 -76.26 89.9
30.38 -76.26 88.66
28.52 -76.26 87.42
26.66 -75.95 86.8
24.18 -75.02 87.42
23.25 -70.68 86.8
27.59 -66.34 87.42
30.69 -65.1 88.04
31.62 -61.38 87.42
28.21 -59.21 86.8
26.97 -57.66 85.56
35.34 -77.5 83.7
34.41 -79.36 82.46
32.86 -79.98 81.22
31.62 -79.98 79.98
31.0 -80.91 78.74
30.38 -80.6 77.5
29.76 -81.84 76.26
27.59 -81.22 75.02
26.66 -76.88 74.4
25.42 -68.2 73.16
25.42 -66.96 71.92
25.73 -64.48 70.68
26.97 -63.86 69.44
27.28 -61.38 68.2
27.9 -58.9 69.44
27.59 -56.42 70.68
28.21 -55.8 71.92
28.83 -53.94 73.16
29.14 -53.32 74.4
31.0 -51.15 75.64
31.62 -50.84 76.88
32.24 -51.15 78.12
33.48 -50.84 79.36
34.41 -50.22 80.6
36.58 -49.29 81.84
41.54 -47.43 82.46
44.02 -44.64 81.22
44.64 -40.3 79.98
45.57 -34.72 80.6
47.74 -32.55 79.36
28.52 -83.7 73.16
30.07 -84.94 71.92
31.31 -85.56 70.68
33.17 -86.8 69.44
35.65 -88.04 68.2
35.96 -88.66 66.96
43.4 -88.35 77.5
41.54 -87.42 76.26
42.16 -88.04 75.02
41.54 -87.42 73.78
41.54 -87.42 72.54
40.3 -86.8 71.3
40.3 -85.56 70.06
40.61 -82.46 69.44
42.16 -79.36 70.06
40.3 -77.19 69.44
40.92 -77.5 68.2
34.72 -80.6 66.96
40.61 -78.12 68.2
42.78 -77.5 69.44
45.26 -79.98 70.68
44.33 -79.36 71.92
47.43 -76.26 72.54
48.05 -75.64 71.3
48.98 -75.64 70.06
48.67 -76.26 68.82
48.67 -75.64 67.58
48.98 -75.64 66.34
48.36 -76.57 65.1
45.57 -75.95 63.86
41.54 -76.26 64.48
33.48 -84.32 65.72
33.17 -84.94 64.48
33.48 -84.94 63.24
34.41 -88.04 62.0
33.48 -88.66 60.76
33.48 -89.28 59.52
33.48 -89.9 58.28
33.79 -92.38 57.04
37.82 -77.19 68.2
36.58 -77.5 66.96
35.34 -79.67 66.34
35.03 -78.74 65.1
35.34 -78.74 63.86
34.41 -78.12 62.62
30.38 -76.26 62.0
29.14 -71.92 62.62
29.14 -65.1 61.38
28.21 -65.1 60.14
29.14 -63.86 58.9
29.45 -63.86 57.66
30.38 -62.93 56.42
32.24 -63.86 55.18
32.86 -63.86 53.32
34.41 -63.24 52.08
36.58 -62.0 50.84
40.3 -64.79 51.46
41.54 -65.41 52.7
42.78 -64.79 53.94
44.33 -65.1 55.18
44.02 -62.62 54.56
41.23 -61.38 56.42
55.8 -97.03 80.6
52.39 -95.79 81.84
50.53 -94.55 83.08
49.6 -95.17 84.32
48.98 -94.86 84.94
46.19 -95.17 84.32
44.64 -93.0 83.7
44.33 -92.38 84.32
44.95 -90.21 85.56
44.64 -90.83 86.8
44.02 -89.28 88.04
42.47 -88.66 89.28
40.3 -83.7 90.52
38.75 -79.36 91.14
35.96 -76.57 92.38
31.62 -74.09 93.0
27.28 -72.85 91.76
24.8 -74.09 90.52
24.18 -76.88 91.76
23.87 -78.12 93.0
23.87 -79.36 94.24
24.49 -79.36 95.48
24.18 -80.6 96.72
23.87 -79.36 97.96
23.56 -80.6 99.2
23.87 -80.6 100.4
23.56 -80.6 101.7
22.32 -79.36 102.9
22.63 -79.98 104.2
23.56 -79.98 105.4
24.8 -80.29 106.6
26.35 -81.22 107.9
27.9 -83.7 109.1
29.45 -84.94 110.4
30.07 -84.94 111.6
31.0 -85.56 112.8
32.24 -84.32 114.1
33.79 -81.84 115.3
35.03 -78.74 116.6
37.51 -78.12 117.8
39.06 -76.88 119.0
39.37 -77.5 120.3
39.68 -76.88 121.5
39.99 -77.5 122.8
39.06 -76.88 124.0
38.44 -76.57 124.6
31.93 -76.88 125.2
30.07 -76.26 126.5
28.52 -75.02 127.7
26.97 -73.16 129.0
24.49 -70.68 130.2
23.56 -69.44 131.4
22.63 -70.06 133.3
22.63 -70.06 134.5
23.25 -70.68 135.8
25.11 -73.78 138.3
25.42 -74.4 139.5
25.73 -75.64 140.7
39.99 -75.64 125.2
40.61 -74.4 126.5
40.92 -73.78 127.1
40.3 -81.22 89.9
39.68 -76.26 90.52
40.92 -73.16 91.76
41.85 -71.92 93.62
42.16 -71.3 94.86
41.54 -71.3 96.1
36.27 -73.16 95.48
32.24 -73.78 94.24
26.66 -71.92 94.86
24.8 -68.82 93.0
23.25 -67.89 91.76
24.18 -67.58 90.52
24.18 -66.96 89.28
23.25 -66.34 88.04
23.87 -65.1 86.18
24.49 -62.0 84.94
25.42 -58.9 86.8
26.66 -56.42 88.04
27.28 -54.56 89.28
28.52 -53.94 90.52
32.55 -48.36 91.76
33.48 -47.12 93.0
35.03 -45.88 94.24
37.82 -44.02 95.48
41.85 -37.82 96.72
43.4 -37.2 97.96
43.71 -35.34 99.2
43.4 -34.1 100.4
43.09 -34.1 101.7
41.54 -32.24 102.9
41.85 -31.62 104.2
39.99 -31.62 105.4
40.61 -30.38 106.6
40.92 -31.0 107.9
42.47 -30.38 109.1
44.64 -30.07 110.4
48.36 -27.28 109.1
50.22 -26.66 111.6
51.15 -27.9 112.8
53.01 -29.76 114.1
56.42 -32.24 115.3
32.86 -50.53 91.76
34.41 -49.6 93.0
35.96 -48.67 94.24
36.89 -48.98 95.48
36.89 -47.74 96.72
38.44 -45.88 97.96
41.54 -40.92 96.72
42.78 -39.06 95.48
41.85 -37.2 93.62
39.99 -35.96 92.38
38.75 -34.1 94.24
36.89 -31.62 95.48
36.89 -29.76 96.72
24.18 -70.06 96.1
23.87 -70.68 97.34
22.63 -70.68 98.58
22.01 -70.06 99.82
21.39 -69.44 101.1
21.39 -68.82 102.3
20.77 -67.58 103.5
20.77 -67.58 104.8
21.08 -68.2 106.0
20.77 -67.58 107.3
20.46 -68.2 108.5
20.46 -69.44 109.7
20.15 -76.88 111.0
20.46 -78.12 112.2
19.84 -79.36 113.5
20.46 -81.84 114.7
20.77 -81.84 115.9
22.01 -81.22 117.2
26.04 -79.36 118.4
29.45 -78.12 119.7
32.24 -76.57 120.9
34.1 -76.57 122.1
36.58 -75.95 123.4
39.99 -74.4 125.2
40.61 -73.16 126.5
40.92 -73.16 127.7
38.44 -71.3 129.0
36.58 -71.61 130.2
34.72 -71.92 131.4
33.48 -70.37 132.7
31.93 -70.06 133.9
31.31 -68.2 135.2
30.38 -66.96 136.4
29.14 -65.72 137.6
29.45 -64.48 138.9
28.83 -63.86 140.1
27.9 -63.24 141.4
28.21 -63.24 142.6
27.59 -64.17 143.8
43.4 -92.38 82.46
42.16 -92.38 81.22
42.16 -93.0 79.98
42.16 -92.38 78.74
42.16 -91.76 77.5
42.78 -91.14 76.26
43.09 -90.52 75.02
43.4 -89.9 73.78
43.71 -89.9 72.54
43.71 -90.21 71.3
43.71 -90.52 70.68
44.64 -89.28 71.3
50.22 -86.8 70.06
52.7 -86.49 69.44
40.3 -90.83 70.06
37.51 -90.52 71.3
34.72 -90.83 72.54
33.48 -91.45 73.78
31.93 -92.38 75.02
32.24 -90.52 76.26
30.07 -89.9 77.5
30.38 -87.42 78.74
46.5 -89.9 85.56
45.26 -88.04 86.8
44.95 -86.18 88.04
44.64 -84.94 89.28
43.09 -83.7 90.52
44.33 -85.56 91.76
44.64 -85.56 93.0
44.95 -85.56 94.24
44.64 -84.32 95.48
44.02 -83.7 96.72
44.33 -81.84 97.96
43.71 -80.6 99.2
43.4 -78.74 100.4
43.4 -76.88 101.7
41.23 -72.85 100.4
42.16 -82.46 91.76
41.85 -81.22 93.0
41.54 -79.98 94.24
40.61 -78.12 95.48
40.92 -78.12 96.72
39.68 -74.4 97.34
39.68 -72.54 98.58
40.92 -70.68 99.82
40.3 -70.06 101.1
42.16 -69.75 101.7
43.4 -69.44 102.9
44.33 -68.82 104.2
44.64 -68.2 105.4
45.26 -67.58 106.6
44.64 -65.72 107.9
44.64 -64.79 109.1
42.78 -62.93 110.4
36.58 -63.55 111.6
34.1 -64.79 112.8
32.86 -65.1 114.1
30.38 -65.1 115.3
27.9 -63.24 116.6
24.8 -56.42 117.8
22.01 -51.46 116.6
21.7 -50.84 115.3
21.7 -50.22 114.1
21.39 -48.36 112.8
21.7 -48.98 111.6
21.7 -48.36 110.4
22.32 -47.12 109.1
22.94 -45.88 107.9
26.04 -44.33 106.6
30.38 -41.85 108.5
32.86 -40.92 109.7
34.72 -40.92 111.0
37.82 -42.47 112.2
40.3 -43.09 113.5
41.54 -42.78 114.7
43.4 -43.4 115.9
44.33 -42.78 117.2
44.64 -40.92 118.4
44.64 -38.44 119.7
38.44 -69.44 101.7
36.58 -69.13 102.3
34.1 -69.44 103.5
33.48 -69.75 104.8
31.62 -69.44 106.0
31.0 -68.2 107.3
30.69 -67.58 108.5
29.76 -66.34 109.7
30.07 -66.34 110.4
30.38 -65.72 111.6
31.62 -66.34 112.8
31.93 -66.96 114.1
31.93 -67.58 114.7
31.0 -69.44 115.3
29.45 -70.99 114.7
27.28 -71.3 114.1
22.32 -66.96 116.6
21.7 -65.72 117.8
21.7 -65.1 119.0
21.39 -64.48 120.3
21.7 -63.24 121.5
21.39 -63.86 122.8
21.7 -64.48 124.0
21.7 -63.86 125.2
21.39 -62.62 126.5
21.7 -59.52 127.7
22.01 -57.04 129.0
22.63 -55.18 130.2
22.63 -52.7 131.4
22.94 -50.84 132.7
24.49 -45.26 133.9
24.49 -42.16 132.7
25.73 -39.68 131.4
27.9 -36.58 130.2
22.01 -63.24 127.1
23.56 -63.86 128.3
28.52 -63.55 127.7
31.62 -62.0 127.1
33.48 -60.14 128.3
33.48 -60.14 129.6
32.86 -58.28 130.8
26.04 -59.52 132.1
25.42 -59.52 133.3
24.18 -59.52 134.5
24.49 -58.9 135.8
24.49 -58.9 137.0
25.11 -58.9 138.3
25.42 -58.9 139.5
26.04 -58.59 140.7
26.66 -58.9 142.0
27.9 -58.28 143.2
28.52 -57.04 144.5
28.52 -53.94 145.7
29.14 -52.7 146.9
29.76 -51.46 148.2
30.07 -50.22 149.4
32.55 -48.36 150.7
34.41 -48.98 151.9
35.65 -47.74 153.1
27.9 -65.41 110.4
24.8 -66.03 111.6
22.01 -67.58 112.8
21.08 -68.82 114.1
20.77 -70.06 115.3
20.15 -71.92 116.6
19.22 -72.54 117.8
19.84 -74.4 119.0
19.53 -74.4 120.3
19.53 -74.4 121.5
19.53 -74.4 122.8
20.15 -74.4 124.0
20.46 -73.78 125.2
21.39 -73.16 126.5
28.52 -72.23 127.7
35.65 -70.68 127.1
35.96 -69.44 125.9
35.34 -68.82 124.6
32.24 -66.96 125.2
30.07 -66.65 126.5
28.83 -67.27 127.7
28.21 -68.2 129.0
27.59 -67.58 130.2
27.59 -66.96 131.4
26.66 -67.58 132.7
26.04 -67.58 133.9
29.14 -66.34 135.2
29.76 -64.79 136.4
31.62 -63.86 137.6
31.93 -63.86 138.9
32.55 -63.24 140.1
31.93 -63.24 141.4
31.62 -63.86 142.6
31.0 -63.24 143.8
30.69 -63.24 145.1
30.69 -63.86 146.3
29.45 -63.86 147.6
29.14 -64.48 148.8
30.07 -63.24 150.0
30.38 -61.38 151.3
38.44 -57.66 150.0
39.68 -56.42 149.4
41.23 -76.88 97.96
[...]
POINT_DATA 2179
SCALARS MaximumInscribedSphereRadius float
LOOKUP_TABLE default
3.72
3.1
3.1
2.48
2.17
2.48
1.86
2.771
2.499
2.17
2.17
2.48
2.17
2.195
2.17
2.499
2.17
2.48
2.17
1.55
1.24
2.17
2.17
1.86
2.17
2.17
2.48
1.55
1.55
1.277
2.48
1.668
1.24
1.86
1.277
1.668
1.885
1.86
1.581
1.24
1.55
0.62
0.31
0.31
0.93
0.31
0.62
0.6944
0.62
0.93
0.62
0.62
0.31
0.31
0.62
0.62
0.62
0.62
0.31
0.6944
0.62
0.31
0.31
0.31
0.62
0.31
0.93
1.885
0.62
1.24
0.62
0.62
0.93
0.62
0.93
0.93
0.6944
0.62
0.31
0.62
0.62
0.62
0.62
0.31
0.31
0.62
0.31
0.31
0.6944
0.62
0.31
0.62
0.9796
0.62
0.31
0.62
0.62
0.62
0.93
0.62
0.31
0.6944
0.31
0.62
0.4402
0.31
0.62
0.31
0.62
0.62
0.93
0.62
0.62
0.31
0.62
0.62
0.62
0.93
0.31
0.62
0.62
0.93
0.31
0.93
0.62
0.31
0.62
0.31
0.62
0.31
0.31
0.31
0.62
0.62
0.31
0.31
0.62
0.31
0.31
0.31
0.93
0.62
0.93
0.62
0.62
0.62
0.62
0.62
0.62
0.31
0.62
0.31
0.62
0.62
0.31
0.62
0.8742
0.31
0.31
0.31
0.62
0.31
0.31
0.62
0.31
0.4402
0.62
0.62
0.31
0.62
0.31
0.62
0.62
0.62
0.31
0.93
0.62
0.93
0.31
0.62
0.31
0.62
0.62
0.62
0.93
0.62
0.31
0.31
0.62
0.62
0.31
0.62
0.31
0.31
0.31
0.31
0.8742
0.31
0.93
1.581
1.314
1.116
0.62
0.9796
0.62
0.93
0.9796
0.6944
0.62
0.31
0.62
0.31
0.93
0.93
0.93
0.93
0.62
0.31
0.31
0.93
0.62
0.31
0.62
0.31
0.62
0.62
0.31
0.62
0.31
0.31
0.62
0.31
0.31
0.62
0.62
0.31
0.31
0.31
0.62
0.31
0.62
0.93
0.62
0.6944
0.31
0.31
0.62
0.31
0.93
0.62
0.31
0.31
0.31
0.31
0.62
0.31
0.31
0.31
0.62
0.62
0.62
0.62
0.31
0.62
0.62
0.6944
0.62
0.62
0.62
0.9796
0.62
0.62
0.31
0.31
0.31
0.62
0.62
0.62
0.62
0.93
0.62
0.31
0.62
0.31
0.62
0.31
0.62
0.31
0.62
0.93
0.31
0.31
0.62
0.6944
0.31
0.62
0.62
0.31
0.31
0.62
0.31
0.31
0.31
0.31
0.31
0.62
0.62
0.62
0.31
0.31
0.31
0.31
0.31
0.62
0.31
0.31
0.31
0.31
0.31
0.31
0.93
0.62
0.93
0.62
0.62
0.31
0.62
0.62
0.62
0.31
0.31
0.62
0.31
0.31
0.31
0.31
0.31
0.31
0.62
0.62
0.31
0.62
0.6944
0.31
0.31
0.62
0.62
0.31
0.93
0.62
0.31
0.4402
0.62
0.62
0.62
0.62
0.62
0.62
0.31
0.62
0.31
0.9796
0.31
0.62
0.62
0.31
0.31
0.6944
0.31
0.6944
0.31
0.62
0.31
0.62
0.62
0.62
0.93
0.62
0.93
0.31
0.62
0.93
0.62
0.62
0.31
0.31
0.62
0.62
0.4402
0.62
0.93
1.24
0.93
0.62
0.62
0.62
0.62
0.62
0.31
0.62
0.31
0.62
0.62
0.62
0.31
0.31
0.31
0.31
0.62
0.62
0.62
1.24
0.93
0.62
0.62
0.93
0.62
0.62
0.62
0.62
0.93
0.93
0.62
0.62
0.93
0.31
0.62
0.62
0.31
0.62
0.62
0.62
0.31
0.62
0.31
0.62
0.62
0.93
0.62
0.31
0.62
0.62
0.31
0.31
0.62
0.9796
0.62
0.62
0.62
0.62
0.31
0.62
0.31
0.62
0.62
0.93
0.62
0.31
0.31
0.31
0.62
0.31
0.31
0.31
0.62
0.6944
0.62
0.31
0.62
0.62
0.62
0.62
0.62
0.62
0.62
0.93
0.31
0.31
0.62
0.31
0.62
0.62
0.62
1.24
0.62
0.62
0.31
0.31
0.31
0.93
0.31
0.31
0.31
0.62
0.31
0.31
0.62
0.62
0.93
0.31
0.93
0.31
0.62
0.31
0.31
0.31
0.62
0.62
0.62
0.4402
0.4402
0.31
0.31
0.31
0.62
1.24
0.62
0.93
0.62
0.31
0.31
0.31
0.62
0.62
0.31
0.31
0.31
0.62
0.31
0.62
0.62
0.62
0.31
0.93
0.6944
0.62
0.62
0.62
0.62
0.62
0.62
0.62
0.62
0.62
0.62
1.24
0.6944
0.6944
0.6944
0.9796
0.62
1.55
0.93
0.62
0.62
1.24
0.31
0.62
0.31
0.62
0.62
0.31
0.62
0.31
0.62
0.31
0.62
0.62
0.31
0.31
0.62
0.31
0.93
0.62
0.6944
0.4402
0.62
0.62
0.31
0.4402
0.62
0.62
0.62
0.31
0.31
0.93
0.62
0.31
0.62
0.31
0.93
0.9796
0.62
0.62
0.62
0.62
0.9796
0.62
0.31
0.62
0.62
0.93
0.62
0.62
0.62
0.93
0.93
0.62
0.9796
0.62
1.24
0.93
0.62
1.24
0.62
0.62
0.93
0.93
0.62
0.62
0.9796
0.62
0.93
0.31
0.62
0.93
0.62
0.62
0.62
0.62
0.62
1.581
0.62
0.9796
0.9796
0.93
1.24
0.62
0.62
0.62
0.62
0.62
0.62
0.62
0.93
0.31
0.62
0.62
0.93
0.93
0.62
0.62
0.62
0.62
0.62
0.31
0.93
0.93
0.31
0.62
0.31
0.62
0.93
0.62
0.62
0.62
0.31
0.62
0.31
0.62
0.62
0.62
0.31
0.62
0.31
0.93
0.62
0.31
0.62
0.31
0.31
0.31
0.62
0.62
0.62
0.62
0.4402
0.62
0.93
0.93
0.31
0.93
0.31
0.62
0.62
0.31
0.93
0.62
0.62
0.62
0.62
0.62
0.62
1.24
0.93
0.62
0.62
0.62
0.62
0.62
0.62
0.62
0.31
0.62
0.31
0.31
0.62
0.62
0.93
0.62
0.62
0.62
0.62
0.62
0.62
0.62
0.62
0.31
0.62
0.62
0.62
0.62
0.62
0.62
0.93
0.93
0.6944
0.62
0.31
0.62
0.62
0.31
0.31
0.4402
0.93
0.31
0.62
0.4402
0.4402
0.31
0.62
0.62
0.31
0.62
0.62
0.62
0.93
0.62
0.93
0.93
0.93
0.93
1.24
0.93
0.93
0.62
0.6944
0.62
0.62
0.62
0.62
0.62
0.31
0.62
0.62
0.31
0.31
0.62
0.62
0.31
0.31
0.31
0.62
0.93
0.62
0.62
0.62
0.62
0.62
0.62
0.31
0.4402
0.31
0.62
0.62
0.31
0.62
0.31
0.31
0.62
0.62
0.4402
0.31
0.93
0.62
0.31
0.62
0.31
0.31
0.62
0.6944
0.62
0.93
0.31
0.31
0.62
0.31
0.31
0.93
0.62
0.31
0.31
0.62
0.62
0.62
0.62
0.62
0.62
0.62
0.31
0.93
0.6944
0.62
0.62
0.62
0.6944
0.31
0.31
0.62
0.31
0.31
0.31
0.31
0.31
0.62
0.62
0.31
0.62
0.62
0.62
0.62
0.31
0.31
0.62
0.31
0.31
0.31
0.93
0.62
0.31
0.31
0.31
0.93
0.6944
0.62
0.31
0.62
0.62
0.31
0.31
0.62
0.62
0.62
0.93
0.62
0.62
0.62
0.62
0.93
0.93
0.62
0.31
0.62
0.62
0.62
0.62
0.31
0.62
0.62
0.31
0.31
0.62
0.31
0.62
0.62
0.93
0.62
0.31
0.31
0.31
0.62
0.62
0.31
0.31
0.31
0.31
0.93
0.62
0.93
0.62
0.62
0.93
0.31
0.62
0.62
0.93
0.62
0.93
0.62
0.62
0.31
0.31
0.31
0.62
0.31
0.31
0.31
0.62
0.31
0.62
0.62
0.31
0.62
0.62
0.31
0.62
0.62
0.62
0.31
0.62
0.62
0.31
0.93
0.62
0.31
0.62
0.93
0.31
0.62
0.31
0.62
0.62
0.62
0.31
0.62
0.31
0.62
0.31
0.31
0.62
0.62
0.31
0.31
0.62
0.62
0.62
1.24
0.62
0.93
0.93
0.62
0.93
0.93
0.4402
0.93
0.62
1.24
0.62
1.24
0.62
0.31
0.62
0.4402
0.62
0.31
0.93
0.62
0.31
0.31
0.31
0.62
0.31
0.62
0.93
0.62
0.93
0.93
0.93
0.93
0.93
0.62
0.31
0.6944
1.116
0.62
0.31
0.62
0.62
0.62
0.62
0.62
0.62
0.62
0.62
0.93
0.62
0.62
0.31
0.62
0.62
0.62
0.93
0.62
0.31
0.31
0.62
0.62
0.62
0.31
0.62
0.62
0.62
0.93
0.31
0.31
0.62
0.93
0.62
0.31
0.31
0.31
0.62
0.62
0.93
0.62
0.62
0.62
1.24
0.62
0.62
0.31
0.31
0.4402
0.31
0.62
0.93
0.62
0.31
0.62
0.93
0.62
1.24
0.62
0.62
0.62
0.62
0.31
0.62
0.93
0.62
0.31
1.24
0.4402
0.62
0.62
0.93
0.6944
0.93
0.62
0.93
0.31
0.31
0.62
0.62
0.93
0.62
0.31
0.31
0.31
0.93
0.62
0.62
0.62
0.31
0.62
0.93
0.93
0.62
0.62
0.62
0.62
0.62
0.6944
0.62
0.62
0.62
0.62
0.62
0.93
0.93
0.93
0.62
0.62
0.62
0.93
0.31
0.62
0.62
0.6944
0.62
0.8742
0.62
0.62
0.93
0.31
0.31
0.31
0.62
0.62
0.31
0.62
0.93
0.4402
0.62
0.62
0.62
0.31
0.62
0.31
0.62
0.62
0.31
0.31
0.62
0.31
0.62
0.62
0.62
0.6944
0.62
0.62
0.93
0.62
0.62
0.93
0.62
1.24
0.62
0.62
0.62
0.62
0.31
0.31
0.93
0.31
0.93
0.31
0.93
0.62
0.62
0.62
0.62
0.62
0.62
0.6944
0.31
0.62
0.62
0.31
0.31
0.31
0.31
0.62
0.6944
0.31
0.62
0.31
0.31
0.62
0.62
0.62
0.31
0.62
0.62
0.62
0.62
0.31
0.62
0.62
0.31
0.62
0.31
0.62
0.62
0.31
0.31
0.31
0.62
0.62
0.31
0.31
0.31
0.31
0.31
0.62
0.62
0.31
0.31
0.31
0.31
0.62
0.31
0.62
0.62
0.62
0.93
0.31
0.93
0.31
0.31
0.31
0.62
0.62
0.31
0.62
0.31
0.31
0.62
0.62
0.93
0.62
0.31
0.62
0.62
0.62
0.62
1.55
0.93
0.93
0.62
0.62
0.93
0.93
0.62
1.755
2.077
1.277
1.24
0.93
1.24
0.6944
1.24
1.116
0.62
0.31
0.62
0.62
0.31
0.31
0.62
0.62
0.62
0.62
0.93
0.62
0.62
0.31
0.93
0.31
0.62
0.31
0.62
0.93
0.62
1.24
0.93
0.93
0.62
0.62
0.93
0.62
0.62
0.62
0.62
0.93
0.93
0.62
0.93
0.93
0.62
0.93
0.62
1.24
0.93
0.31
0.31
0.62
0.62
1.24
1.24
0.93
0.31
0.31
0.93
0.93
0.62
0.62
0.62
0.62
0.6944
0.62
0.62
0.93
0.62
0.62
0.62
0.62
0.62
0.93
0.31
0.62
0.93
0.62
0.93
0.62
0.31
0.62
0.62
0.62
0.62
0.31
0.62
0.62
0.93
0.62
0.93
0.62
0.62
0.62
0.62
0.31
0.62
0.62
0.31
0.62
0.31
0.31
0.31
0.31
0.31
0.9796
0.31
0.62
0.93
0.62
0.93
0.62
0.62
0.62
0.62
0.31
0.31
0.62
0.62
0.62
0.62
0.31
0.62
0.6944
0.62
0.62
0.31
0.62
0.31
0.62
0.93
0.31
0.31
0.31
0.62
0.62
0.62
0.62
0.62
0.62
0.9796
0.6944
0.6944
0.31
0.93
0.31
0.62
0.4402
0.31
0.31
0.62
0.62
0.62
0.6944
0.62
0.62
0.31
0.93
0.62
1.277
0.93
0.62
0.31
1.277
0.62
0.62
0.62
0.93
0.93
0.62
0.62
0.62
0.31
0.93
0.31
0.62
0.31
0.31
0.62
0.31
0.31
0.31
0.31
0.6944
0.62
0.31
0.62
0.31
0.31
0.62
0.93
0.62
0.93
0.62
0.6944
0.62
0.31
0.31
0.31
0.31
0.62
0.31
0.62
0.93
0.31
0.31
0.62
0.62
0.62
0.62
0.62
0.31
0.31
0.31
0.93
0.62
0.62
0.31
0.62
0.62
0.31
0.62
0.62
0.93
0.62
0.31
0.62
0.4402
0.62
0.31
0.6944
0.93
0.93
0.93
0.31
0.62
0.93
0.62
0.31
0.31
0.62
0.31
0.62
0.31
0.62
0.9796
0.62
0.31
0.93
1.116
0.62
0.62
0.62
0.62
0.93
0.62
0.62
0.62
0.4402
1.24
0.31
0.31
0.31
0.31
0.62
0.62
0.62
0.62
0.93
0.62
0.62
0.31
0.62
1.86
0.93
0.93
0.93
0.62
0.62
0.62
0.31
0.62
0.62
0.31
0.62
0.31
0.62
0.93
0.62
0.62
0.62
0.62
0.31
0.6944
0.93
0.31
0.31
0.31
0.93
0.62
1.24
0.93
1.116
0.62
0.62
0.93
0.62
0.93
0.62
0.93
0.31
0.31
0.31
0.62
0.93
0.93
0.31
0.6944
0.6944
0.62
0.62
0.62
0.31
0.62
0.62
0.62
0.62
0.31
0.31
0.31
0.31
0.62
0.62
0.31
0.62
0.62
0.62
0.31
0.62
0.31
0.62
0.62
0.93
0.31
0.31
0.31
0.31
0.31
0.31
0.62
0.62
0.62
0.31
0.62
0.62
0.62
0.62
0.62
0.62
0.31
0.62
0.31
0.31
0.31
0.31
0.93
0.62
0.31
0.62
0.62
0.31
0.62
0.31
0.62
0.62
0.62
0.62
0.62
0.62
0.62
0.62
0.93
1.116
0.62
0.62
0.31
0.62
0.62
0.62
0.31
0.31
0.62
0.62
0.31
0.62
0.93
0.62
0.62
0.62
0.31
0.31
0.62
0.62
0.93
0.31
0.62
0.62
0.31
0.62
0.62
0.62
0.31
0.31
0.31
0.62
0.31
0.31
0.62
0.31
0.31
0.31
0.62
0.93
0.31
0.31
0.62
0.31
0.31
0.31
0.31
0.62
0.31
0.62
0.4402
0.62
0.31
0.62
0.31
0.62
0.62
0.62
0.31
0.31
0.62
0.31
0.31
0.62
0.31
0.62
0.62
0.31
0.62
0.62
0.62
0.62
0.62
0.62
0.31
0.93
0.62
0.62
0.62
0.62
0.6944
0.93
0.62
0.31
0.62
0.31
0.62
0.62
0.62
0.31
0.31
0.31
0.62
0.62
0.62
0.62
0.31
0.62
0.62
0.31
0.31
0.62
0.62
0.62
0.31
0.62
0.31
0.31
0.93
0.62
0.62
0.62
0.31
0.31
0.31
0.31
0.31
0.31
0.31
0.62
0.62
0.31
0.62
0.31
0.31
0.62
0.31
0.31
0.62
0.31
0.31
0.62
0.62
0.62
0.62
0.62
0.31
0.31
0.31
0.8742
0.62
0.31
0.62
0.31
0.62
0.31
0.62
0.31
0.31
0.31
0.62
0.31
1.668
0.93
1.116
0.93
0.93
0.93
0.93
1.24
0.62
0.93
0.6944
0.62
0.62
0.31
0.62
0.62
0.93
0.62
0.62
0.93
0.31
0.62
0.62
0.62
1.24
0.62
0.93
0.93
1.24
0.93
0.62
0.62
0.93
0.31
0.62
0.93
0.62
0.31
0.62
0.62
0.62
0.62
0.62
0.62
0.31
0.62
0.62
0.62
0.8742
0.62
0.62
0.62
0.62
0.62
0.62
0.31
0.31
0.31
0.31
0.62
0.31
0.31
0.62
0.31
0.62
0.31
0.31
0.31
0.31
0.31
0.62
0.31
0.62
0.31
0.31
0.31
0.93
0.62
0.62
0.62
0.62
0.31
0.62
0.31
0.62
0.62
0.31
0.31
0.62
0.62
0.31
0.93
0.31
0.31
0.62
0.31
0.62
0.62
0.62
0.62
0.62
0.31
0.31
0.62
0.62
0.62
0.62
0.62
0.62
0.93
0.31
0.93
0.62
0.62
0.31
0.62
0.62
0.93
0.62
0.62
0.31
0.31
0.62
1.24
0.31
0.62
0.62
0.62
0.62
0.31
0.31
0.62
0.62
0.31
0.62
0.31
0.62
0.93
0.62
0.31
0.62
0.62
0.62
0.62
0.62
0.62
0.62
0.62
0.62
1.24
0.62
0.62
0.62
0.62
0.62
0.31
0.31
0.31
0.62
0.31
0.62
0.62
0.62
0.93
0.62
0.62
0.62
0.62
0.93
0.62
0.62
0.62
0.62
0.62
0.31
0.62
0.62
0.4402
0.62
0.62
0.62
0.31
0.6944
0.62
0.62
0.62
0.62
0.62
0.62
0.62
0.31
0.62
0.31
0.62
0.62
0.31
0.31
0.31
0.31
0.62
0.62
0.31
0.62
0.93
0.62
0.31
0.62
0.31
0.31
0.31
0.62
0.31
0.62
0.31
0.62
0.62
0.62
0.93
0.62
0.93
0.62
0.93
0.62
0.31
0.62
0.31
0.62
0.4402
0.62
0.62
0.62
0.31
0.62
0.31
0.31
0.62
0.31
0.62
0.62
0.62
0.31
0.31
0.4402
0.31
0.31
0.31
0.31
0.31
0.31
0.62
0.31
0.62
0.62
0.62
0.62
0.31
0.62
0.31
0.31
0.62
0.62
0.31
0.31
0.31
0.31
0.31
0.62
0.31
2.362
2.17
1.55
1.314
1.984
1.389
1.86
1.24
2.17
1.86
1.86
2.48
1.885
1.86
1.86
1.86
1.86
1.755
1.86
1.86
2.17
1.86
2.499
1.55
1.581
2.424
1.86
2.48
2.17
2.48
2.79
2.17
2.48
3.1
1.24
0.93
0.62
0.93
0.62
0.62
0.31
0.93
0.31
0.93
0.31
0.93
0.62
0.31
0.31
0.31
0.62
0.31
0.62
0.31
0.31
0.62
0.31
0.31
0.62
0.31
0.62
0.31
0.31
0.62
0.62
0.62
0.62
0.31
0.62
0.62
0.6944
1.55
0.62
0.62
0.62
0.62
0.31
0.62
0.62
0.62
0.31
0.62
0.93
0.31
0.31
0.31
0.62
0.62
0.93
0.62
0.31
0.62
0.6944
0.62
0.31
0.31
0.31
0.62
0.62
0.62
0.31
0.31
0.31
0.31
0.62
0.62
0.31
0.93
0.93
0.31
0.31
0.31
0.31
0.62
0.62
0.31
1.55
1.24
1.24
0.93
1.86
CELL_DATA 79
SCALARS SegmentIndex int
LOOKUP_TABLE default
0
1
2
3
4
5
6
7
8
9
10
11
12
13
14
15
16
17
18
19
20
21
22
23
24
25
26
27
28
29
30
31
32
33
34
35
36
37
38
39
40
41
42
43
44
45
46
47
48
49
50
51
52
53
54
55
56
57
58
59
60
61
62
63
64
65
66
67
68
69
70
71
72
73
74
75
76
77
78
SCALARS Domain int
LOOKUP_TABLE default
0
0
4
4
4
4
4
4
4
4
4
4
4
4
4
4
4
4
4
4
4
4
4
4
5
5
5
5
5
5
5
5
5
0
7
7
7
7
0
6
6
6
6
6
6
0
3
3
3
3
3
3
3
3
3
3
3
3
3
3
3
3
3
2
2
2
2
2
2
2
2
2
0
0
0
0
0
0
0
