# vtk DataFile Version 2.0
Vessel Segment
ASCII
DATASET POLYDATA
POINTS 2006 float
112.8 -117.5 102.3
114.1 -117.2 103.5
115.3 -117.8 104.8
115.6 -117.8 106.0
115.6 -117.8 107.3
117.2 -120.3 108.5
116.6 -120.9 109.7
111.9 -116.9 101.1
109.7 -116.9 99.82
107.3 -116.9 98.58
105.1 -115.0 97.34
103.8 -112.2 96.1
103.5 -106.6 94.86
102.6 -104.8 93.62
102.3 -104.2 92.38
102.9 -103.5 91.14
102.3 -101.7 89.9
103.2 -102.3 88.66
103.8 -101.4 87.42
104.5 -101.7 86.18
104.8 -101.7 84.94
105.1 -101.7 83.7
105.1 -102.3 82.46
105.1 -102.3 81.22
102.0 -98.58 82.46
101.1 -98.89 83.7
101.1 -97.96 84.94
99.82 -97.34 86.18
101.1 -96.72 87.42
101.1 -94.86 88.66
102.6 -94.24 89.9
104.5 -91.76 89.28
105.7 -88.66 88.66
105.1 -87.73 88.04
102.9 -85.87 86.8
100.4 -85.25 85.56
99.82 -84.94 84.32
98.89 -85.56 83.08
98.58 -85.56 81.84
98.58 -86.8 80.6
97.65 -87.42 79.36
97.34 -87.42 78.12
96.41 -88.04 76.88
96.41 -88.04 75.64
95.48 -87.42 74.4
94.55 -85.56 73.16
94.24 -82.46 71.92
95.17 -81.22 70.68
95.48 -79.36 69.44
96.41 -78.74 68.2
97.34 -77.5 66.34
97.34 -77.5 65.1
97.96 -76.26 63.86
98.27 -76.26 62.62
98.58 -75.64 61.38
98.27 -75.02 60.14
98.27 -73.16 58.9
98.27 -71.92 57.66
97.65 -70.37 57.04
96.72 -68.2 58.28
97.03 -65.72 59.52
96.72 -63.86 60.76
96.41 -62.62 62.0
96.72 -61.38 63.24
96.41 -60.76 64.48
96.72 -60.76 65.72
97.03 -60.14 66.96
96.1 -58.9 68.2
96.41 -59.52 68.82
96.1 -58.9 70.06
96.1 -58.28 71.3
95.48 -57.04 72.54
95.79 -57.66 73.78
95.17 -56.42 75.02
94.86 -56.42 76.26
94.55 -55.8 77.5
94.55 -55.18 78.74
94.55 -53.32 79.98
94.24 -53.32 81.22
95.17 -51.46 83.08
94.24 -51.46 83.7
94.55 -50.84 84.94
94.86 -50.84 86.18
94.86 -50.84 87.42
95.17 -50.84 88.66
94.55 -50.22 89.9
94.86 -48.98 91.14
94.86 -48.98 92.38
94.86 -48.36 93.62
94.86 -45.26 94.86
94.24 -44.64 96.1
94.55 -44.02 97.34
93.62 -44.02 98.58
93.31 -44.33 99.82
93.0 -44.64 101.1
92.38 -45.26 102.3
93.0 -46.5 103.5
93.0 -47.12 104.8
92.69 -47.74 106.0
93.0 -48.36 107.3
92.38 -48.36 107.9
92.69 -44.64 109.1
92.38 -40.92 110.4
94.86 -37.82 111.6
96.72 -36.27 112.8
97.65 -35.03 114.1
97.96 -34.41 115.3
99.2 -34.72 116.6
98.89 -34.72 117.8
99.2 -35.34 119.0
99.82 -35.96 120.3
101.7 -40.3 121.5
102.9 -41.85 122.8
104.8 -41.54 124.0
105.4 -42.16 125.2
105.4 -38.44 126.5
104.8 -35.34 127.7
99.51 -32.24 127.1
97.96 -30.38 127.7
96.1 -26.66 129.0
95.48 -24.18 130.2
95.48 -22.94 131.4
94.55 -22.94 132.7
95.48 -22.94 133.3
94.55 -15.5 135.8
93.93 -15.5 137.0
93.93 -16.12 138.3
94.55 -15.5 139.5
93.62 -22.32 133.9
93.31 -21.08 135.2
92.38 -21.08 136.4
92.69 -20.46 137.6
105.7 -34.1 128.3
105.1 -32.86 129.6
105.1 -31.62 130.8
103.2 -26.66 131.4
102.9 -19.22 132.1
102.9 -16.12 133.3
105.1 -9.92 134.5
109.7 -11.16 137.0
110.1 -13.02 138.3
110.1 -13.02 138.9
93.62 -52.7 107.9
93.62 -53.32 109.1
93.62 -53.94 110.4
93.93 -53.32 111.6
92.69 -52.7 112.8
93.31 -52.7 113.5
92.69 -49.6 114.1
92.38 -47.74 115.3
92.07 -45.26 116.6
91.76 -45.26 117.8
93.31 -53.94 114.1
93.31 -53.94 115.3
93.31 -55.8 116.6
93.31 -56.42 117.8
93.31 -56.42 119.0
92.07 -57.04 120.3
91.76 -57.66 121.5
93.0 -60.14 122.8
92.07 -58.28 124.0
91.45 -58.9 125.2
93.62 -41.54 96.72
93.0 -40.92 97.96
93.0 -40.3 99.2
93.62 -39.06 100.4
92.38 -39.06 101.7
92.38 -37.82 102.9
93.0 -36.58 104.2
93.31 -35.65 105.4
97.34 -35.34 106.0
100.8 -39.06 106.6
102.3 -39.68 107.9
102.9 -39.68 109.1
103.2 -40.3 110.4
102.3 -37.82 111.6
95.48 -46.5 84.32
94.55 -42.16 85.56
94.55 -38.44 86.8
101.1 -37.51 88.04
101.7 -38.44 89.28
101.7 -39.06 90.52
101.7 -39.06 91.76
102.3 -37.82 93.0
101.4 -38.44 94.24
100.4 -36.58 95.48
98.89 -32.86 96.72
93.62 -26.04 97.96
92.69 -24.18 99.2
93.0 -23.56 100.4
93.31 -22.32 101.7
93.0 -22.32 102.9
93.0 -21.7 104.2
92.69 -20.46 105.4
92.69 -19.84 106.6
92.38 -18.6 107.9
94.24 -7.75 109.1
95.48 -6.51 110.4
97.34 -5.27 111.0
96.72 -53.94 68.2
97.34 -52.08 67.58
97.03 -47.12 68.82
97.34 -45.88 70.06
97.34 -45.26 71.3
97.96 -44.02 72.54
99.2 -43.71 73.78
99.82 -43.4 75.02
102.3 -41.85 75.64
104.8 -39.06 75.02
105.1 -35.96 75.64
104.8 -35.34 76.88
104.8 -35.34 78.12
103.5 -34.1 79.36
101.1 -32.55 80.6
97.34 -27.9 79.98
96.41 -25.42 78.74
95.17 -21.7 77.5
94.86 -17.98 78.74
94.24 -17.36 79.98
94.24 -16.74 81.22
97.34 -11.78 82.46
99.2 -9.3 83.7
100.4 -8.99 84.94
100.8 -8.37 86.18
101.1 -8.68 87.42
102.3 -8.99 88.66
102.3 -8.68 89.9
102.3 -8.06 91.14
102.9 -7.44 92.38
103.2 -7.13 94.24
103.2 -7.44 96.1
104.2 -9.92 96.72
104.5 -13.02 96.1
107.3 -14.88 96.72
111.6 -16.74 97.34
102.0 -13.64 95.48
102.0 -16.74 94.86
104.2 -17.98 96.1
108.5 -19.22 96.72
97.65 -70.06 56.42
97.34 -69.44 55.18
96.72 -69.44 53.94
97.34 -69.44 52.7
96.72 -69.44 51.46
97.03 -68.82 50.22
96.72 -66.34 48.98
97.65 -64.48 49.6
99.82 -61.38 50.84
101.7 -61.38 52.08
103.5 -61.38 53.32
104.5 -60.14 54.56
105.4 -57.66 55.8
105.4 -53.94 55.18
104.8 -53.63 53.94
103.5 -51.15 52.7
99.51 -46.5 53.32
98.58 -44.64 54.56
98.58 -42.78 55.8
98.27 -40.92 57.04
97.34 -37.2 57.66
97.96 -33.48 56.42
98.89 -31.62 55.18
99.82 -29.76 53.94
101.7 -26.04 52.7
102.9 -22.94 53.94
103.2 -21.7 55.18
104.2 -21.39 56.42
105.4 -21.08 57.66
106.0 -22.32 58.9
112.8 -27.9 60.14
115.3 -29.14 61.38
114.4 -30.38 62.0
114.7 -29.76 63.24
113.8 -31.0 64.48
111.9 -31.62 65.72
111.9 -33.48 66.96
111.9 -34.1 68.2
112.8 -35.34 69.44
114.1 -36.58 70.68
115.9 -37.82 71.92
118.1 -26.66 62.0
119.0 -24.8 63.24
120.0 -24.8 64.48
119.3 -23.56 65.72
120.3 -22.32 66.96
120.6 -22.32 68.2
121.5 -22.01 69.44
121.8 -21.7 70.68
121.8 -21.7 71.92
121.8 -22.94 73.16
120.0 -24.8 74.4
119.3 -26.66 76.26
115.6 -29.14 77.5
107.9 -89.59 88.04
110.4 -89.28 87.42
112.8 -89.9 86.8
115.3 -89.9 86.18
117.8 -90.21 86.8
120.3 -90.21 87.42
121.8 -91.14 86.18
123.4 -92.07 84.94
125.9 -92.69 83.7
127.7 -92.69 83.08
129.6 -91.14 83.7
131.4 -89.9 84.94
133.3 -88.97 86.18
133.9 -88.04 86.8
133.9 -88.66 86.18
135.8 -85.87 84.32
136.4 -86.18 83.7
137.6 -85.87 82.46
138.3 -86.49 80.6
139.8 -85.56 78.74
139.8 -82.46 77.5
138.9 -79.98 78.12
137.0 -78.12 79.36
133.0 -74.4 80.6
131.1 -71.3 81.84
130.5 -70.68 83.08
131.4 -69.13 83.7
133.9 -72.85 83.08
134.5 -74.71 81.84
136.4 -75.33 81.22
138.3 -76.88 79.36
140.1 -78.12 78.12
141.4 -80.6 78.74
142.6 -80.91 80.6
144.5 -80.6 82.46
146.0 -79.36 83.7
146.3 -76.26 84.32
145.1 -71.3 83.7
142.6 -66.34 83.08
141.7 -62.0 83.7
142.9 -58.28 84.32
145.4 -55.8 83.7
147.9 -52.08 84.32
147.6 -49.6 83.7
146.6 -48.36 83.08
145.1 -48.67 83.7
141.4 -49.29 84.32
139.2 -49.29 85.56
135.2 -48.67 86.8
130.8 -48.05 88.04
127.4 -46.19 87.42
125.9 -45.26 86.8
125.6 -44.02 87.42
126.8 -41.54 86.8
127.4 -40.92 85.56
128.3 -39.06 84.32
129.9 -37.2 83.08
132.1 -35.34 83.7
132.4 -34.72 84.32
132.7 -32.86 85.56
132.7 -32.24 87.42
129.6 -28.83 86.8
127.1 -28.52 86.18
125.6 -26.66 86.8
125.2 -23.87 86.18
126.8 -21.08 85.56
144.8 -45.88 83.08
145.7 -43.4 83.7
145.1 -41.54 83.08
143.8 -41.54 81.84
141.4 -40.61 81.22
138.3 -42.47 79.36
135.8 -43.71 78.12
132.1 -44.33 76.88
127.1 -47.12 78.74
141.4 -76.57 77.5
143.8 -76.57 76.88
147.6 -76.88 76.26
150.0 -76.57 76.88
151.3 -76.88 77.5
152.2 -75.02 78.74
153.4 -70.68 79.36
153.4 -68.2 78.74
150.0 -64.48 77.5
143.5 -61.07 76.26
142.6 -58.28 75.02
139.5 -56.42 73.16
133.3 -54.25 72.54
132.7 -54.56 70.06
132.7 -53.94 68.82
132.7 -53.32 68.2
133.6 -52.08 66.96
134.2 -50.22 66.34
137.0 -48.67 66.96
139.5 -48.05 67.58
143.5 -45.26 66.34
137.9 -84.94 84.94
137.9 -84.94 85.56
137.6 -84.32 86.8
137.6 -84.32 88.04
137.3 -83.7 89.28
137.0 -82.46 90.52
137.0 -81.84 91.76
137.6 -79.36 93.62
137.3 -77.5 94.24
134.8 -74.4 93.62
132.7 -71.92 93.0
131.1 -68.2 92.38
130.5 -66.34 93.0
131.1 -63.86 93.62
132.1 -62.93 94.86
132.7 -63.86 96.1
133.3 -64.48 96.72
134.8 -65.72 95.48
135.5 -67.58 94.24
137.0 -68.2 93.0
139.5 -71.92 92.38
142.6 -74.4 91.76
146.3 -74.71 92.38
152.2 -71.3 91.76
154.7 -68.2 91.14
154.7 -66.96 90.52
155.0 -65.1 89.28
155.3 -63.24 87.42
154.7 -60.76 85.56
154.7 -58.28 84.94
154.7 -56.42 86.18
154.4 -55.8 86.8
154.4 -53.94 88.04
153.8 -52.7 89.28
153.4 -53.32 90.52
153.4 -51.46 91.76
153.1 -48.98 93.62
153.1 -46.5 94.86
151.9 -43.4 96.1
149.1 -42.78 97.34
148.5 -44.02 98.58
146.3 -45.26 96.72
146.0 -46.5 95.48
146.0 -44.64 94.24
146.6 -44.64 93.0
147.6 -44.64 91.76
149.1 -43.4 90.52
149.1 -41.54 89.28
143.8 -35.03 89.9
141.4 -34.72 91.14
140.7 -36.58 92.38
138.9 -37.51 94.24
137.3 -37.2 95.48
133.3 -38.75 96.1
134.5 -87.42 88.04
134.5 -88.04 89.28
135.2 -87.42 90.52
135.5 -86.8 91.76
135.5 -86.18 93.0
135.2 -84.94 94.24
135.8 -84.32 96.1
135.8 -83.7 97.34
137.0 -81.84 98.58
136.1 -79.98 99.82
137.0 -78.74 101.1
137.0 -76.26 102.3
136.7 -74.4 102.9
134.5 -71.3 103.5
132.4 -68.2 104.2
129.0 -65.1 105.4
127.7 -64.48 106.6
127.4 -62.0 107.9
127.1 -62.0 109.1
128.0 -60.14 110.4
128.7 -60.14 111.0
129.3 -59.52 111.6
129.3 -58.9 112.8
129.6 -58.9 114.1
129.6 -58.9 115.9
129.0 -57.66 117.2
131.8 -59.83 119.0
136.4 -63.24 117.2
141.4 -64.17 117.2
144.5 -64.17 118.4
146.3 -63.55 119.7
147.6 -63.24 120.9
148.8 -62.93 122.1
149.7 -62.62 124.0
149.7 -62.0 125.2
151.3 -60.14 127.1
153.1 -57.66 128.3
153.1 -52.08 129.6
152.8 -50.22 130.2
152.2 -47.12 129.6
152.8 -45.26 128.3
152.8 -44.64 126.5
152.8 -44.02 125.2
152.8 -44.02 124.0
150.7 -42.16 122.1
146.3 -39.68 120.9
141.7 -38.44 119.7
140.1 -36.58 120.9
139.8 -36.58 122.1
138.9 -35.96 123.4
137.0 -36.27 124.6
133.3 -36.89 125.9
132.7 -37.2 127.1
131.4 -37.51 128.3
131.1 -37.51 129.6
128.3 -40.92 129.0
125.2 -40.61 128.3
123.4 -39.06 129.6
122.1 -38.75 130.8
121.8 -39.68 132.1
119.0 -39.37 132.7
115.6 -37.2 131.4
115.6 -33.48 132.1
116.3 -31.62 133.3
130.2 -59.21 111.0
134.8 -60.45 110.4
139.5 -62.93 111.6
145.1 -63.86 112.2
150.0 -64.48 112.8
152.5 -64.48 113.5
154.4 -63.24 114.7
154.4 -60.14 115.9
155.3 -65.1 112.2
156.2 -64.48 110.4
156.2 -62.0 108.5
155.9 -60.76 107.3
155.0 -58.9 105.4
155.0 -58.28 104.2
155.6 -56.42 102.9
155.3 -54.56 101.1
153.8 -50.22 102.9
151.6 -50.22 104.8
149.4 -50.84 106.0
143.2 -49.29 106.6
141.1 -47.12 107.3
139.8 -45.88 108.5
136.7 -42.78 109.7
134.2 -40.92 108.5
133.6 -40.3 107.3
[...]
POINT_DATA 2006
SCALARS MaximumInscribedSphereRadius float
LOOKUP_TABLE default
2.79
1.959
2.48
2.79
2.17
2.48
1.86
2.195
2.17
1.55
2.195
1.55
2.48
1.55
1.86
1.86
1.86
2.17
2.195
1.55
1.86
2.17
1.55
1.668
1.668
1.277
1.86
1.24
1.389
1.24
1.55
1.55
1.55
0.9796
0.93
0.93
0.62
0.93
1.24
1.24
0.93
0.62
0.93
0.93
1.24
0.93
0.62
0.93
0.62
0.93
0.62
0.62
0.62
0.93
0.62
0.93
0.31
0.93
0.9796
0.62
0.31
0.62
0.93
0.62
0.31
0.62
0.31
0.62
0.31
0.62
0.62
0.62
0.93
0.93
0.62
0.31
0.31
0.31
0.62
0.93
0.62
0.31
0.62
0.62
0.93
0.31
0.62
0.62
0.62
0.62
0.62
0.93
0.62
0.4402
0.62
0.62
0.62
0.62
0.31
0.62
0.62
0.93
0.62
0.62
0.93
0.4402
0.31
0.62
0.6944
1.24
0.62
0.62
0.93
0.62
0.62
0.62
0.62
0.31
0.62
0.62
0.62
0.62
0.31
0.62
0.31
0.31
0.31
0.31
0.62
0.31
0.62
0.31
0.31
0.31
0.31
0.31
0.62
0.62
0.31
0.62
0.31
0.31
0.62
0.62
0.62
0.31
0.31
0.31
0.31
0.62
0.93
0.62
0.31
0.31
0.31
0.31
0.31
0.31
0.62
0.62
0.31
0.31
0.62
0.62
0.62
0.62
0.62
0.62
0.62
0.4402
0.62
0.31
0.62
0.62
0.31
0.62
0.62
0.31
0.6944
0.31
0.62
0.62
0.62
0.62
0.93
0.62
0.93
0.62
0.31
0.62
0.31
0.62
0.62
0.31
0.31
0.62
0.31
0.31
0.31
0.62
0.62
0.31
0.62
0.62
0.62
0.31
0.62
0.93
0.62
0.93
0.62
0.62
0.62
1.116
0.62
0.93
0.93
0.62
0.62
0.62
0.62
0.62
0.93
0.9796
0.62
0.93
0.62
0.62
0.62
0.4402
0.31
0.62
0.93
0.62
0.62
0.31
0.31
0.62
0.62
0.31
0.62
0.62
0.62
0.62
0.31
0.62
0.31
0.62
1.24
1.24
0.93
0.62
0.62
1.277
0.31
0.93
0.62
0.62
0.93
0.62
0.62
0.31
0.62
0.62
0.62
0.6944
0.31
0.62
0.62
0.62
0.62
0.31
0.62
0.31
0.31
0.31
0.31
0.62
0.62
0.62
0.31
0.62
0.93
0.31
0.62
0.31
0.31
0.31
0.31
0.31
0.31
0.31
0.31
1.55
0.62
1.24
0.62
0.93
0.93
0.6944
0.93
0.93
0.93
0.62
0.62
0.93
0.62
0.62
0.93
0.62
0.31
0.31
0.31
0.31
0.62
0.62
0.93
0.31
0.31
0.31
0.31
0.31
0.31
0.62
0.62
0.62
0.31
0.62
0.31
0.62
0.62
0.62
0.93
0.31
0.93
0.93
0.62
0.6944
1.116
0.31
0.9796
0.93
0.31
0.4402
0.62
0.93
0.93
0.31
0.62
0.93
0.62
0.31
0.62
0.62
0.31
0.62
0.31
0.6944
0.31
1.116
0.62
0.62
0.62
0.31
0.31
0.31
0.31
0.62
0.31
0.31
0.62
0.31
0.62
0.31
0.31
0.31
0.62
0.4402
0.62
0.62
0.31
0.62
0.62
0.62
0.31
0.31
0.31
0.31
0.31
0.31
0.31
0.62
0.62
0.31
0.62
0.62
0.62
0.31
0.93
0.62
0.31
0.31
0.31
0.31
0.62
0.62
0.31
0.6944
0.62
0.8742
0.62
0.31
0.31
0.31
0.93
0.62
0.31
0.93
0.31
0.31
0.62
0.62
0.62
0.31
0.93
0.62
0.62
0.62
0.6944
0.93
0.62
0.31
0.31
0.31
0.62
0.31
0.31
0.31
0.62
0.62
0.31
0.31
0.31
0.62
0.62
0.62
0.93
0.93
0.62
0.62
0.62
0.62
0.93
0.62
0.62
0.93
0.8742
0.93
0.62
0.62
0.93
0.62
0.31
0.6944
0.93
0.93
0.62
0.62
0.62
0.9796
1.24
0.93
0.93
0.93
0.62
0.93
0.93
0.31
0.62
1.24
0.62
0.31
0.93
0.31
0.93
0.93
0.93
0.62
0.62
1.116
0.62
0.31
0.62
0.93
0.93
0.62
0.31
0.9796
0.62
0.31
0.62
0.31
0.31
0.31
0.31
0.31
0.31
0.93
0.9796
1.116
0.62
0.62
0.62
0.62
0.62
0.6944
0.62
0.62
0.31
0.62
0.62
0.62
0.31
0.62
0.31
0.62
0.6944
0.31
0.31
0.31
0.31
0.31
0.31
0.62
0.62
0.31
0.31
0.31
0.62
0.93
0.62
0.62
0.62
0.31
0.6944
0.62
0.31
0.62
0.62
0.93
0.6944
0.62
0.62
0.62
0.62
0.62
0.62
0.93
0.62
0.31
0.62
0.93
0.62
0.93
0.93
0.62
0.31
0.31
0.62
0.6944
0.31
0.6944
0.31
0.31
0.62
0.6944
0.93
0.6944
0.62
0.31
0.62
0.62
0.31
0.31
0.31
0.31
0.62
0.31
0.62
0.31
0.6944
0.62
0.62
0.62
0.31
0.31
0.62
0.62
0.31
0.31
0.31
0.31
0.62
0.93
0.9796
1.24
0.93
0.62
0.31
0.93
0.62
0.31
0.62
0.31
0.62
0.62
0.6944
0.6944
0.62
0.62
0.62
0.31
0.62
0.62
0.62
0.62
0.62
0.93
0.62
0.31
0.31
0.62
0.62
0.93
0.62
0.31
0.6944
0.31
0.31
0.31
0.31
0.31
0.93
0.62
0.62
0.31
0.4402
0.62
0.62
0.31
0.62
0.62
0.62
0.31
0.31
0.62
0.31
0.93
0.62
0.31
0.62
0.62
0.31
0.31
0.31
0.62
0.62
0.62
0.31
0.31
0.62
0.31
0.93
0.62
0.62
0.31
0.62
0.62
0.31
0.62
0.62
0.62
0.31
0.62
0.31
0.31
0.31
0.31
0.31
0.31
0.62
0.31
0.31
0.62
0.62
0.31
0.31
0.31
0.31
0.31
0.31
0.31
0.31
0.62
0.31
0.31
0.31
0.62
0.31
0.62
0.62
0.62
0.62
0.62
0.62
0.31
0.62
0.31
0.31
0.62
0.62
0.31
0.62
0.62
0.62
0.62
0.31
0.31
0.31
0.62
0.93
0.31
0.31
0.93
0.62
0.62
0.31
0.31
0.93
0.62
0.62
0.62
0.62
0.31
0.31
0.62
0.62
0.62
0.62
0.62
0.62
0.31
0.93
0.93
0.62
0.62
0.93
0.62
0.31
0.62
0.31
0.62
0.62
0.62
0.62
0.62
1.24
0.62
0.62
0.62
0.62
0.62
0.9796
1.277
0.31
0.62
0.62
0.62
0.62
0.93
0.62
0.62
0.31
0.93
0.93
0.93
0.31
1.24
0.4402
0.62
1.24
0.31
0.62
0.31
0.31
0.31
0.31
0.31
0.31
0.62
0.31
0.31
0.4402
0.31
0.62
0.31
0.31
0.93
0.62
0.93
0.31
0.62
0.62
0.62
0.93
0.93
0.93
0.93
0.93
0.93
1.24
0.31
0.93
0.31
0.62
0.62
0.93
0.4402
0.31
0.31
0.62
0.62
0.62
0.62
0.93
0.62
0.93
0.31
0.62
0.62
0.62
0.31
0.31
0.31
0.62
0.62
0.31
0.62
0.31
0.31
0.62
0.62
0.62
0.31
0.62
0.31
0.31
0.31
0.31
0.62
0.31
0.62
0.62
0.62
0.31
0.31
0.31
0.31
0.62
0.31
0.31
0.62
0.31
0.31
0.31
0.62
0.31
0.62
0.62
0.62
0.62
0.62
0.4402
0.31
0.93
0.31
0.31
0.31
0.31
0.31
0.93
0.31
0.93
0.62
0.62
0.62
0.62
0.62
0.62
0.31
0.62
0.62
0.62
0.31
0.31
0.62
0.62
0.31
0.31
0.62
0.31
0.62
0.62
0.62
0.31
0.31
0.62
0.31
0.4402
0.31
0.31
0.62
0.31
0.31
0.31
0.62
0.31
0.31
0.62
0.31
0.31
0.31
0.31
0.62
0.31
0.93
0.62
0.31
0.31
0.62
0.62
0.31
0.93
0.31
0.31
0.31
0.93
0.31
0.31
0.62
0.31
0.62
0.31
0.62
0.31
0.62
0.93
0.93
0.93
1.55
1.277
0.6944
0.93
0.93
0.31
0.31
0.62
0.31
0.31
0.62
0.62
0.62
1.389
1.55
1.24
1.55
1.86
0.93
1.24
1.86
1.55
1.55
1.24
2.17
1.86
1.86
1.55
1.24
1.86
1.24
1.55
1.668
1.885
1.86
2.17
2.195
2.195
2.17
2.17
1.55
1.314
1.81
1.55
1.24
0.62
0.62
0.93
0.31
0.62
0.62
0.31
0.62
0.62
0.31
0.93
0.62
0.62
0.62
0.31
0.62
0.62
0.62
0.93
0.62
0.62
0.31
0.62
0.31
0.31
0.62
0.62
0.62
0.31
0.31
0.62
0.31
0.62
0.31
0.93
0.62
0.6944
1.24
0.6944
0.31
0.31
0.31
0.31
0.62
0.31
0.31
0.31
0.31
0.62
0.62
0.62
0.62
0.93
0.93
0.62
0.31
0.62
0.62
0.62
0.31
0.62
0.31
0.62
0.31
0.62
0.9796
0.31
0.62
0.4402
0.31
0.62
0.62
0.62
0.62
0.62
0.62
0.62
0.62
0.62
0.31
0.62
0.62
0.31
0.62
0.62
0.62
0.31
0.62
0.62
0.93
0.31
0.62
0.62
0.31
0.62
0.62
0.6944
0.31
0.31
0.62
0.62
0.62
0.62
0.62
0.31
0.31
0.31
0.31
0.31
0.31
0.31
0.93
0.31
0.62
0.31
0.93
0.31
0.62
0.62
0.62
0.31
0.31
0.31
0.31
0.62
0.31
0.62
0.31
0.62
0.93
0.62
0.93
0.6944
0.62
0.62
0.31
0.93
0.62
0.31
0.62
0.93
0.93
0.62
0.31
0.31
0.62
0.31
0.9796
0.31
0.31
0.62
0.62
0.31
0.31
0.62
0.31
0.31
0.62
0.31
0.62
0.31
0.62
0.62
0.31
0.62
0.31
0.62
0.62
0.6944
0.62
0.4402
0.62
0.6944
0.62
0.62
0.62
0.31
0.62
0.62
0.31
0.31
0.62
0.62
0.62
0.62
0.62
0.62
0.62
0.31
0.31
0.31
0.62
0.62
0.31
0.93
0.62
0.62
0.93
0.62
0.31
0.31
0.62
0.31
0.31
0.62
0.62
0.62
0.62
0.62
0.31
0.31
0.62
0.93
0.62
0.62
0.93
0.93
1.24
0.62
0.93
0.93
0.62
0.93
0.62
0.6944
0.62
0.93
0.93
0.93
0.9796
0.93
0.93
1.885
0.93
0.93
0.93
0.93
0.62
0.93
0.62
0.93
0.31
0.62
0.93
0.93
0.93
0.62
0.62
0.62
0.62
0.31
0.93
0.93
0.62
0.62
0.62
0.62
0.93
0.9796
0.62
0.93
0.93
0.93
0.62
1.581
1.24
0.62
0.93
0.31
0.62
0.62
1.24
0.62
0.62
0.31
0.62
0.62
0.31
0.62
0.62
0.62
0.62
0.31
0.62
0.62
0.62
0.31
0.62
0.9796
0.93
0.93
0.62
0.9796
0.62
0.62
0.93
0.93
0.62
0.31
0.31
0.6944
0.62
0.31
0.62
0.93
0.62
0.31
0.62
0.31
0.31
0.62
0.31
0.62
0.62
0.31
0.93
0.62
0.62
0.62
0.62
0.62
0.62
0.31
0.31
0.62
0.31
0.62
0.93
0.31
0.6944
0.31
0.31
0.31
0.93
0.31
0.62
0.62
0.93
0.31
0.62
0.62
0.62
0.31
0.31
0.31
0.62
0.31
0.31
0.62
0.62
0.62
0.31
0.31
0.93
0.62
0.31
0.62
0.31
0.62
0.62
0.62
0.31
0.62
0.62
0.93
0.62
0.62
0.62
0.31
0.62
0.62
0.93
0.62
0.31
0.62
0.31
0.62
0.62
0.6944
0.31
0.62
0.31
0.31
0.31
0.62
0.62
0.62
0.31
0.62
1.277
0.62
0.93
0.62
0.31
0.62
0.31
0.62
0.62
0.62
0.62
0.62
0.62
0.31
0.62
0.62
0.62
0.62
0.62
0.62
0.62
0.62
0.31
0.62
0.31
0.62
0.93
0.62
0.31
0.31
0.93
0.31
0.31
0.62
0.31
0.62
0.62
0.62
0.31
0.62
0.62
0.31
0.93
0.62
0.62
0.6944
0.31
0.62
0.62
0.93
0.62
0.93
0.62
0.62
0.31
0.31
0.31
0.62
0.62
0.31
0.62
0.31
0.62
0.62
0.31
0.62
0.31
0.31
0.93
0.31
0.31
0.31
0.62
0.62
0.62
0.62
0.93
0.62
0.93
0.62
0.62
0.62
0.62
0.31
0.62
1.116
0.62
0.62
0.93
0.62
0.62
0.62
0.62
0.62
0.62
0.31
0.62
0.62
0.62
0.62
0.62
0.93
0.93
0.62
0.62
0.62
0.62
0.62
0.31
0.31
0.93
0.62
0.62
0.62
0.31
0.31
0.93
0.62
0.4402
0.31
0.31
0.31
0.31
0.31
0.31
0.31
0.31
0.62
0.62
0.62
0.31
0.31
0.31
0.6944
0.62
0.8742
0.62
1.24
0.62
0.62
0.62
0.62
0.62
0.62
0.62
0.62
0.31
0.31
0.31
0.93
0.62
0.62
0.93
0.62
0.31
0.31
0.31
0.62
0.31
1.24
0.4402
0.62
0.31
0.62
0.62
0.62
0.31
0.62
0.62
0.62
0.31
0.31
0.62
0.62
0.62
0.62
0.93
0.62
0.93
1.116
0.62
0.62
0.31
1.24
0.62
0.31
0.62
0.62
0.62
0.31
0.62
0.62
0.31
0.62
0.62
0.31
0.62
0.6944
0.62
0.31
0.62
0.62
0.4402
0.4402
0.31
0.6944
0.4402
0.31
0.62
0.31
0.62
0.31
0.31
0.31
0.62
0.31
0.31
0.31
0.62
0.31
0.31
0.31
0.62
0.31
0.93
0.31
0.62
0.62
0.62
0.31
0.62
0.62
0.62
0.62
0.62
0.93
0.31
0.62
0.31
0.31
0.62
0.62
0.31
0.62
0.62
0.62
0.31
0.31
0.62
0.62
0.6944
0.31
0.62
0.62
0.31
0.31
0.62
0.62
0.62
0.31
0.62
0.62
0.31
0.31
0.93
0.6944
0.62
0.31
0.62
0.6944
0.31
0.31
0.93
0.93
0.93
0.62
0.62
0.93
0.62
0.62
0.31
0.62
0.62
0.31
0.31
0.31
0.62
0.31
0.31
0.4402
0.62
0.31
0.62
0.31
0.31
0.62
0.31
0.62
0.31
0.62
0.31
0.31
0.31
0.62
0.31
0.31
0.31
0.62
0.6944
0.31
0.62
0.31
0.62
0.62
0.62
0.93
1.277
0.62
0.31
0.31
1.116
1.55
0.9796
0.93
0.62
0.62
0.62
0.62
0.62
0.62
0.31
0.62
0.62
0.62
0.62
0.31
0.62
0.62
0.31
0.31
0.62
0.31
0.31
0.62
0.62
0.62
0.31
0.31
0.31
0.62
0.62
0.93
0.93
0.62
0.62
0.93
0.62
1.389
0.93
0.93
0.93
0.62
0.4402
0.31
0.8742
0.62
0.62
0.93
0.62
0.62
0.31
0.62
0.62
0.93
0.93
0.93
0.93
0.6944
0.4402
0.62
0.62
0.31
0.62
0.93
0.93
0.62
0.62
0.93
0.62
0.31
0.93
0.62
0.93
0.62
0.62
0.31
0.62
0.62
0.62
0.62
0.31
0.62
0.93
0.31
0.62
0.31
0.62
0.31
0.31
0.62
0.62
0.31
0.31
0.31
0.62
0.31
0.62
0.62
0.62
0.62
0.62
0.31
0.31
0.31
0.31
0.62
0.62
0.31
0.93
0.31
0.31
0.31
0.31
0.31
0.31
0.31
0.62
0.93
0.31
0.62
0.62
0.31
0.31
0.31
0.62
0.31
0.31
0.31
1.24
0.62
0.6944
0.31
0.31
0.31
0.31
0.62
0.62
0.31
0.62
0.6944
0.31
0.62
1.24
0.31
0.62
0.62
0.62
0.62
0.62
0.62
0.31
0.31
0.93
0.62
0.31
0.62
0.31
0.93
0.31
0.31
0.62
0.62
0.62
0.31
1.55
1.24
1.24
0.4402
0.62
0.31
0.62
0.62
0.62
0.31
0.31
0.31
0.31
0.62
0.31
0.31
0.62
0.31
0.31
0.31
0.62
0.62
0.31
0.31
0.31
0.93
0.31
0.62
0.31
0.6944
0.62
0.31
0.62
0.62
0.31
0.31
0.62
0.62
0.62
0.31
0.31
0.62
0.93
0.62
0.31
0.31
0.62
0.31
0.62
0.62
0.31
0.31
0.31
0.31
0.31
0.31
0.31
0.31
0.31
0.31
0.31
0.31
0.31
0.31
0.62
0.31
0.62
0.31
0.31
0.31
0.62
0.31
0.31
0.31
1.24
0.6944
0.9796
0.62
0.93
0.62
0.62
0.62
0.62
0.62
0.93
0.31
0.31
0.31
0.31
0.62
0.31
0.62
0.31
0.31
0.31
0.62
0.62
0.31
0.31
0.31
0.62
0.62
0.31
0.62
1.24
0.62
0.4402
0.62
0.31
0.31
0.62
0.62
0.93
0.62
0.31
0.62
0.62
0.31
0.31
0.62
0.31
0.31
0.31
0.31
1.24
1.24
1.55
1.55
0.93
CELL_DATA 70
SCALARS SegmentIndex int
LOOKUP_TABLE default
0
1
2
3
4
5
6
7
8
9
10
11
12
13
14
15
16
17
18
19
20
21
22
23
24
25
26
27
28
29
30
31
32
33
34
35
36
37
38
39
40
41
42
43
44
45
46
47
48
49
50
51
52
53
54
55
56
57
58
59
60
61
62
63
64
65
66
67
68
69
SCALARS Domain int
LOOKUP_TABLE default
0
0
2
2
2
2
2
2
2
2
2
2
3
3
3
3
3
3
3
3
3
3
3
3
3
3
3
3
3
0
6
6
6
6
6
0
0
5
5
5
5
5
4
4
4
4
4
4
4
4
4
4
4
4
4
4
4
7
7
7
7
7
7
7
0
0
0
0
0
0
